 vasp.6.3.0 20Jan22 (build Apr 15 2022 16:02:13) complex
 executed on             LinuxGNU date 2023.03.03  09:02:17
 running   64 mpi-ranks, with    1 threads/rank
 distrk:  each k-point on   16 cores,    4 groups
 distr:  one band on NCORE=   1 cores,   16 groups


--------------------------------------------------------------------------------------------------------


 INCAR:
   ICHARG = 2
   LWAVE = .FALSE.
   LCHARG = .FALSE.
   LVTOT = .FALSE.
   NCORE = 1
   KPAR = 4
   EDIFF = 1E-5
   NELM = 80
   PREC = Normal
   LREAL = Auto
   NELMIN = 4
   LDAU = .TRUE.
   LDAUTYPE = 2
   LDAUL = -1   2    2    -1
   LDAUU = 0.00 3.00 6.00 0.00
   LDAUJ = 0.00 0.00 0.00 0.00
   ENCUT = 400.0 eV
   NELECT = 1034
   NUPDOWN = 2
   ISPIN = 2
   ISMEAR = 0
   SIGMA = 0.10
   NSW = 0
   LEPSILON = .TRUE.
   LPEAD = .TRUE.
   ISYM = 0

 POTCAR:    PAW_PBE Sr_sv 07Sep2000
 POTCAR:     PAW_PBE Ti_pv 07Sep2000
 POTCAR:     PAW_PBE Ni_pv 06Sep2000
 POTCAR:     PAW_PBE O 08Apr2002
 -----------------------------------------------------------------------------
|                                                                             |
|           W    W    AA    RRRRR   N    N  II  N    N   GGGG   !!!           |
|           W    W   A  A   R    R  NN   N  II  NN   N  G    G  !!!           |
|           W    W  A    A  R    R  N N  N  II  N N  N  G       !!!           |
|           W WW W  AAAAAA  RRRRR   N  N N  II  N  N N  G  GGG   !            |
|           WW  WW  A    A  R   R   N   NN  II  N   NN  G    G                |
|           W    W  A    A  R    R  N    N  II  N    N   GGGG   !!!           |
|                                                                             |
|     You use a magnetic or noncollinear calculation, but did not specify     |
|     the initial magnetic moment with the MAGMOM tag. Note that a            |
|     default of 0.015 will be used for all atoms. This ferromagnetic         |
|     setup may break the symmetry of the crystal, in particular it may       |
|     rule out finding an antiferromagnetic solution. Thence, we              |
|     recommend setting the initial magnetic moment manually or verifying     |
|     carefully that this magnetic setup is desired.                          |
|                                                                             |
 -----------------------------------------------------------------------------

 POTCAR:    PAW_PBE Sr_sv 07Sep2000
   VRHFIN =Sr: 4s4p5s
   LEXCH  = PE
   EATOM  =   843.0319 eV,   61.9611 Ry

   TITEL  = PAW_PBE Sr_sv 07Sep2000
   LULTRA =        F    use ultrasoft PP ?
   IUNSCR =        1    unscreen: 0-lin 1-nonlin 2-no
   RPACOR =    2.200    partial core radius
   POMASS =   87.620; ZVAL   =   10.000    mass and valenz
   RCORE  =    2.500    outmost cutoff radius
   RWIGS  =    4.040; RWIGS  =    2.138    wigner-seitz radius (au A)
   ENMAX  =  229.353; ENMIN  =  172.014 eV
   RCLOC  =    2.201    cutoff for local pot
   LCOR   =        T    correct aug charges
   LPAW   =        T    paw PP
   EAUG   =  366.804
   DEXC   =    0.000
   RMAX   =    2.547    core radius for proj-oper
   RAUG   =    1.300    factor for augmentation sphere
   RDEP   =    2.562    radius for radial grids
   RDEPT  =    2.128    core radius for aug-charge

   Atomic configuration
   10 entries
     n  l   j            E        occ.
     1  0  0.50    -15934.8930   2.0000
     2  0  0.50     -2157.6250   2.0000
     2  1  1.50     -1917.0034   6.0000
     3  0  0.50      -333.7288   2.0000
     3  1  1.50      -256.0992   6.0000
     3  2  2.50      -127.9971  10.0000
     4  0  0.50       -40.8953   2.0000
     5  0  0.50        -3.5257   1.9990
     4  1  1.50       -22.8179   6.0000
     4  2  1.50        -1.2815   0.0010
   Description
     l       E           TYP  RCUT    TYP  RCUT
     0    -40.8953213     23  2.480
     0     -3.5257161     23  2.480
     1    -22.8178632     23  2.500
     1    -24.1784458     23  2.500
     2     -1.2814598     23  2.500
     2      0.2279365     23  2.500
  local pseudopotential read in
  partial core-charges read in
  partial kinetic energy density read in
  atomic valenz-charges read in
  non local Contribution for L=           0  read in
    real space projection operators read in
  non local Contribution for L=           0  read in
    real space projection operators read in
  non local Contribution for L=           1  read in
    real space projection operators read in
  non local Contribution for L=           1  read in
    real space projection operators read in
  non local Contribution for L=           2  read in
    real space projection operators read in
  non local Contribution for L=           2  read in
    real space projection operators read in
    PAW grid and wavefunctions read in

   number of l-projection  operators is LMAX  =           6
   number of lm-projection operators is LMMAX =          18

 POTCAR:     PAW_PBE Ti_pv 07Sep2000
   VRHFIN =Ti: d3 s1
   LEXCH  = PE
   EATOM  =  1042.5995 eV,   76.6289 Ry

   TITEL  = PAW_PBE Ti_pv 07Sep2000
   LULTRA =        F    use ultrasoft PP ?
   IUNSCR =        1    unscreen: 0-lin 1-nonlin 2-no
   RPACOR =    2.200    partial core radius
   POMASS =   47.880; ZVAL   =   10.000    mass and valenz
   RCORE  =    2.500    outmost cutoff radius
   RWIGS  =    2.500; RWIGS  =    1.323    wigner-seitz radius (au A)
   ENMAX  =  222.335; ENMIN  =  166.751 eV
   RCLOC  =    1.701    cutoff for local pot
   LCOR   =        T    correct aug charges
   LPAW   =        T    paw PP
   EAUG   =  482.848
   DEXC   =    0.000
   RMAX   =    2.564    core radius for proj-oper
   RAUG   =    1.300    factor for augmentation sphere
   RDEP   =    2.538    radius for radial grids
   RDEPT  =    1.952    core radius for aug-charge

   Atomic configuration
    8 entries
     n  l   j            E        occ.
     1  0  0.50     -4865.3608   2.0000
     2  0  0.50      -533.1368   2.0000
     2  1  1.50      -440.5031   6.0000
     3  0  0.50       -59.3186   2.0000
     3  1  1.50       -35.7012   6.0000
     3  2  2.50        -1.9157   3.0000
     4  0  0.50        -3.7291   1.0000
     4  3  2.50        -1.3606   0.0000
   Description
     l       E           TYP  RCUT    TYP  RCUT
     1    -35.7012140     23  2.300
     1     -1.3605826     23  2.300
     2     -1.9156996     23  2.500
     2     -0.4063033     23  2.500
     0     -3.7290856     23  2.500
     0     20.4087390     23  2.500
  local pseudopotential read in
  partial core-charges read in
  partial kinetic energy density read in
  atomic valenz-charges read in
  non local Contribution for L=           1  read in
    real space projection operators read in
  non local Contribution for L=           1  read in
    real space projection operators read in
  non local Contribution for L=           2  read in
    real space projection operators read in
  non local Contribution for L=           2  read in
    real space projection operators read in
  non local Contribution for L=           0  read in
    real space projection operators read in
  non local Contribution for L=           0  read in
    real space projection operators read in
    PAW grid and wavefunctions read in

   number of l-projection  operators is LMAX  =           6
   number of lm-projection operators is LMMAX =          18

 POTCAR:     PAW_PBE Ni_pv 06Sep2000
   VRHFIN =Ni:
   LEXCH  = PE
   EATOM  =  3501.1230 eV,  257.3253 Ry

   TITEL  = PAW_PBE Ni_pv 06Sep2000
   LULTRA =        F    use ultrasoft PP ?
   IUNSCR =        1    unscreen: 0-lin 1-nonlin 2-no
   RPACOR =    1.500    partial core radius
   POMASS =   58.690; ZVAL   =   16.000    mass and valenz
   RCORE  =    2.000    outmost cutoff radius
   RWIGS  =    2.000; RWIGS  =    1.058    wigner-seitz radius (au A)
   ENMAX  =  367.986; ENMIN  =  275.989 eV
   RCLOC  =    1.301    cutoff for local pot
   LCOR   =        T    correct aug charges
   LPAW   =        T    paw PP
   EAUG   =  703.443
   DEXC   =    0.000
   RMAX   =    2.041    core radius for proj-oper
   RAUG   =    1.300    factor for augmentation sphere
   RDEP   =    2.103    radius for radial grids
   RDEPT  =    1.618    core radius for aug-charge

   Atomic configuration
    8 entries
     n  l   j            E        occ.
     1  0  0.50     -8206.4253   2.0000
     2  0  0.50      -976.1748   2.0000
     2  1  1.50      -839.0571   6.0000
     3  0  0.50      -105.9991   2.0000
     3  1  1.50       -66.4603   6.0000
     3  2  2.50        -4.6458   9.0000
     4  0  0.50        -4.4926   1.0000
     4  3  2.50        -1.3606   0.0000
   Description
     l       E           TYP  RCUT    TYP  RCUT
     1    -66.4602962     23  1.700
     1     -1.3605826     23  1.700
     2     -4.6457867     23  2.000
     2     -6.0063693     23  2.000
     0     -4.4925576     23  1.900
     0     16.3626226     23  1.900
  local pseudopotential read in
  partial core-charges read in
  partial kinetic energy density read in
  atomic valenz-charges read in
  non local Contribution for L=           1  read in
    real space projection operators read in
  non local Contribution for L=           1  read in
    real space projection operators read in
  non local Contribution for L=           2  read in
    real space projection operators read in
  non local Contribution for L=           2  read in
    real space projection operators read in
  non local Contribution for L=           0  read in
    real space projection operators read in
  non local Contribution for L=           0  read in
    real space projection operators read in
    PAW grid and wavefunctions read in

   number of l-projection  operators is LMAX  =           6
   number of lm-projection operators is LMMAX =          18

 POTCAR:     PAW_PBE O 08Apr2002
   VRHFIN =O: s2p4
   LEXCH  = PE
   EATOM  =   432.3788 eV,   31.7789 Ry

   TITEL  = PAW_PBE O 08Apr2002
   LULTRA =        F    use ultrasoft PP ?
   IUNSCR =        1    unscreen: 0-lin 1-nonlin 2-no
   RPACOR =    1.200    partial core radius
   POMASS =   16.000; ZVAL   =    6.000    mass and valenz
   RCORE  =    1.520    outmost cutoff radius
   RWIGS  =    1.550; RWIGS  =    0.820    wigner-seitz radius (au A)
   ENMAX  =  400.000; ENMIN  =  300.000 eV
   ICORE  =        2    local potential
   LCOR   =        T    correct aug charges
   LPAW   =        T    paw PP
   EAUG   =  605.392
   DEXC   =    0.000
   RMAX   =    1.553    core radius for proj-oper
   RAUG   =    1.300    factor for augmentation sphere
   RDEP   =    1.550    radius for radial grids
   RDEPT  =    1.329    core radius for aug-charge

   Atomic configuration
    4 entries
     n  l   j            E        occ.
     1  0  0.50      -514.6923   2.0000
     2  0  0.50       -23.9615   2.0000
     2  1  0.50        -9.0305   4.0000
     3  2  1.50        -9.5241   0.0000
   Description
     l       E           TYP  RCUT    TYP  RCUT
     0    -23.9615318     23  1.200
     0     -9.5240782     23  1.200
     1     -9.0304911     23  1.520
     1      8.1634956     23  1.520
     2     -9.5240782      7  1.500
  local pseudopotential read in
  partial core-charges read in
  partial kinetic energy density read in
  kinetic energy density of atom read in
  atomic valenz-charges read in
  non local Contribution for L=           0  read in
    real space projection operators read in
  non local Contribution for L=           0  read in
    real space projection operators read in
  non local Contribution for L=           1  read in
    real space projection operators read in
  non local Contribution for L=           1  read in
    real space projection operators read in
    PAW grid and wavefunctions read in

   number of l-projection  operators is LMAX  =           4
   number of lm-projection operators is LMMAX =           8

 Optimization of the real space projectors (new method)

 maximal supplied QI-value         = 15.12
 optimisation between [QCUT,QGAM] = [ 10.13, 20.41] = [ 28.73,116.64] Ry
 Optimized for a Real-space Cutoff    1.60 Angstroem

   l    n(q)    QCUT    max X(q) W(low)/X(q) W(high)/X(q)  e(spline)
   0     10    10.129    11.565    0.27E-04    0.92E-05    0.33E-07
   0     10    10.129    10.214    0.43E-04    0.16E-04    0.67E-07
   1      9    10.129   189.983    0.42E-03    0.33E-03    0.23E-06
   1      9    10.129   193.105    0.42E-03    0.33E-03    0.23E-06
   2      9    10.129   115.941    0.73E-04    0.52E-03    0.39E-06
   2      9    10.129    76.444    0.71E-04    0.51E-03    0.38E-06
 Optimization of the real space projectors (new method)

 maximal supplied QI-value         = 15.12
 optimisation between [QCUT,QGAM] = [ 10.13, 20.41] = [ 28.73,116.64] Ry
 Optimized for a Real-space Cutoff    1.51 Angstroem

   l    n(q)    QCUT    max X(q) W(low)/X(q) W(high)/X(q)  e(spline)
   1      9    10.129     4.216    0.12E-04    0.72E-04    0.60E-07
   1      9    10.129     5.422    0.84E-04    0.21E-03    0.15E-06
   2      8    10.129    72.084    0.33E-03    0.35E-04    0.17E-06
   2      8    10.129    65.965    0.33E-03    0.37E-04    0.17E-06
   0      9    10.129    41.531    0.17E-03    0.19E-03    0.81E-07
   0      9    10.129    16.290    0.12E-03    0.14E-03    0.64E-07
 Optimization of the real space projectors (new method)

 maximal supplied QI-value         = 18.90
 optimisation between [QCUT,QGAM] = [ 10.20, 20.41] = [ 29.16,116.64] Ry
 Optimized for a Real-space Cutoff    1.26 Angstroem

   l    n(q)    QCUT    max X(q) W(low)/X(q) W(high)/X(q)  e(spline)
   1      7    10.205     2.836    0.17E-03    0.21E-04    0.11E-06
   1      7    10.205     4.023    0.33E-03    0.14E-03    0.24E-06
   2      7    10.205    73.368    0.31E-03    0.79E-03    0.23E-06
   2      7    10.205    69.010    0.31E-03    0.80E-03    0.23E-06
   0      8    10.205    54.797    0.29E-03    0.35E-04    0.49E-07
   0      8    10.205    24.266    0.25E-03    0.34E-04    0.45E-07
 Optimization of the real space projectors (new method)

 maximal supplied QI-value         = 24.76
 optimisation between [QCUT,QGAM] = [ 10.15, 20.30] = [ 28.85,115.39] Ry
 Optimized for a Real-space Cutoff    1.38 Angstroem

   l    n(q)    QCUT    max X(q) W(low)/X(q) W(high)/X(q)  e(spline)
   0      8    10.150    20.381    0.22E-03    0.32E-03    0.29E-06
   0      8    10.150    15.268    0.23E-03    0.35E-03    0.30E-06
   1      8    10.150     5.964    0.46E-03    0.53E-03    0.21E-06
   1      8    10.150     5.382    0.38E-03    0.45E-03    0.19E-06
  PAW_PBE Sr_sv 07Sep2000               :
 energy of atom  1       EATOM= -843.0319
 kinetic energy error for atom=    0.0032 (will be added to EATOM!!)
   PAW_PBE Ti_pv 07Sep2000              :
 energy of atom  2       EATOM=-1042.5995
 kinetic energy error for atom=    0.0037 (will be added to EATOM!!)
   PAW_PBE Ni_pv 06Sep2000              :
 energy of atom  3       EATOM=-3501.1230
 kinetic energy error for atom=    0.1021 (will be added to EATOM!!)
   PAW_PBE O 08Apr2002                  :
 energy of atom  4       EATOM= -432.3788
 kinetic energy error for atom=    0.1156 (will be added to EATOM!!)


 POSCAR: Sr Ti Ni  O
  positions in cartesian coordinates
  No initial velocities read in
 exchange correlation table for  LEXCH =        8
   RHO(1)=    0.500       N(1)  =     2000
   RHO(2)=  100.500       N(2)  =     4000



--------------------------------------------------------------------------------------------------------


 ion  position               nearest neighbor table
   1  1.000  0.000  1.000-  57 2.78  75 2.79 100 2.79  73 2.79 111 2.79 106 2.79 115 2.79  55 2.79
                           109 2.79 117 2.79  82 2.79  88 2.79  30 3.42  47 3.42  53 3.42  36 3.42
   2  1.000  1.000  0.333- 107 2.78  56 2.78 115 2.78 101 2.78 110 2.78  89 2.78  74 2.78  73 2.78
                           109 2.78 116 2.78  55 2.78  83 2.78  51 3.41  34 3.41  45 3.41  28 3.42
   3  1.000  1.000  0.667-  84 2.78  74 2.78  90 2.78 117 2.78  75 2.78 116 2.78 110 2.78 102 2.78
                           108 2.78  57 2.79  56 2.79 111 2.79  53 3.41  36 3.41  47 3.42  30 3.42
   4  0.000  0.333  1.000- 103 2.78  85 2.78 111 2.78 114 2.78 112 2.78  58 2.78  78 2.78 100 2.78
                            82 2.79 109 2.79  76 2.79  60 2.79  30 3.41  47 3.41  33 3.42  31 3.42
   5  0.000  0.334  0.334-  77 2.76  59 2.76  86 2.77 104 2.77 113 2.77 112 2.79  76 2.79  83 2.79
                            58 2.79 110 2.80 101 2.80 109 2.80  48 3.41  31 3.41  32 3.41  49 3.41
   6  0.000  0.334  0.665-  59 2.76 105 2.76  87 2.76  77 2.76 113 2.77 102 2.79 110 2.79  84 2.79
                           114 2.80  78 2.80  60 2.80 111 2.80  32 3.41  29 3.41  49 3.41  46 3.41
   7  1.000  0.667  0.000- 103 2.77  85 2.78 106 2.78  79 2.78  61 2.78 114 2.78  88 2.78 112 2.78
                            81 2.78 115 2.78  63 2.78 117 2.79  51 3.41  48 3.41  53 3.41  34 3.41
   8  1.000  0.665  0.335- 104 2.76 113 2.76  86 2.76  80 2.76  62 2.77 112 2.79  89 2.80  61 2.80
                           116 2.80  79 2.80 107 2.80 115 2.81  49 3.41  32 3.41  48 3.41  31 3.41
   9  0.000  0.665  0.665-  87 2.76  62 2.76 105 2.76 113 2.76  80 2.77 116 2.79 114 2.79  63 2.79
                            81 2.80  90 2.80 108 2.80 117 2.80  32 3.41  49 3.41  33 3.41  50 3.41
  10  0.333  0.000  0.000-  91 2.78  97 2.78 120 2.78  57 2.78  64 2.78  82 2.78  55 2.78 126 2.78
                           118 2.79  88 2.79  66 2.79 124 2.79  30 3.41  28 3.41  36 3.41  34 3.41
  11  0.334  0.000  0.334- 125 2.76  98 2.76  92 2.77 119 2.77  65 2.77 118 2.79  56 2.79 124 2.79
                            64 2.80  83 2.80  89 2.80  55 2.80  43 3.41  38 3.41  42 3.41  37 3.41
  12  0.335  0.000  0.666-  93 2.76  99 2.76 125 2.77 119 2.77  65 2.77 120 2.79 126 2.79  90 2.79
                            66 2.80  84 2.80  56 2.80  57 2.81  43 3.41  38 3.41  39 3.41  44 3.41
  13  0.334  0.335  0.000-  69 2.76  67 2.76 121 2.76 123 2.77  94 2.77  60 2.79  91 2.79  58 2.79
                            85 2.80  82 2.80 118 2.80 120 2.80  40 3.41  41 3.41  31 3.41  33 3.41
  14  0.338  0.338  0.338- 122 2.71  95 2.71  68 2.72 119 2.80  86 2.80  92 2.80 121 2.80  67 2.81
                            59 2.81 118 2.86  58 2.86  83 2.86  54 3.32  32 3.37  40 3.37  38 3.37
  15  0.337  0.338  0.662- 122 2.71  68 2.72  96 2.72 119 2.80  59 2.80  87 2.80  93 2.80  69 2.81
                           123 2.81  60 2.86  84 2.87 120 2.87  54 3.33  32 3.37  38 3.37  41 3.38
  16  0.334  0.666  0.000- 123 2.76 121 2.76  70 2.77  94 2.77  72 2.77  97 2.79 124 2.80  85 2.80
                            63 2.80  61 2.80 126 2.80  88 2.80  40 3.41  41 3.41  42 3.41  44 3.41
  17  0.338  0.662  0.338-  71 2.72  95 2.72 122 2.72  86 2.80  62 2.80 125 2.80 121 2.80  70 2.80
                            98 2.81 124 2.86  61 2.87  89 2.87  54 3.32  32 3.37  40 3.37  43 3.37
  18  0.338  0.662  0.662-  96 2.72  71 2.72 122 2.72 123 2.80  62 2.80  72 2.80  99 2.80  87 2.80
                           125 2.80  63 2.86 126 2.86  90 2.87  54 3.32  41 3.37  43 3.37  32 3.37
  19  0.667  0.000  1.000-  66 2.78 135 2.78  64 2.78 133 2.78  91 2.78 129 2.78 127 2.78  75 2.78
                            73 2.79  97 2.79 100 2.79 106 2.79  44 3.41  39 3.41  53 3.41  47 3.42
  20  0.666  1.000  0.335-  98 2.76 134 2.76  92 2.76 128 2.76  65 2.77 101 2.79 107 2.79  64 2.80
                            74 2.80 127 2.80 133 2.80  73 2.81  43 3.41  38 3.41  46 3.41  52 3.41
  21  0.666  0.000  0.666- 128 2.76  99 2.76  93 2.76 134 2.77  65 2.77  66 2.79 108 2.79  74 2.79
                           135 2.80 129 2.80 102 2.80  75 2.80  38 3.41  43 3.41  39 3.41  44 3.41
  22  0.666  0.335  0.000- 130 2.76 132 2.76  67 2.76  69 2.77  94 2.77  78 2.79 129 2.79 127 2.80
                            76 2.80 103 2.80  91 2.80 100 2.80  40 3.41  41 3.41  50 3.41  48 3.41
  23  0.662  0.338  0.338-  68 2.71  95 2.72 131 2.72  92 2.80  77 2.80 128 2.80 104 2.80 130 2.81
                            67 2.81  76 2.86 101 2.86 127 2.87  54 3.32  38 3.37  49 3.37  40 3.37
  24  0.662  0.338  0.662-  68 2.72  96 2.72 131 2.72  93 2.80 128 2.80 105 2.80 132 2.80  77 2.81
                            69 2.81 129 2.86 102 2.86  78 2.86  54 3.32  38 3.37  41 3.37  49 3.37
  25  0.666  0.666  0.000- 130 2.76  70 2.76  72 2.76 132 2.76  94 2.77 133 2.79 135 2.79  79 2.79
                            97 2.80  81 2.80 103 2.80 106 2.80  40 3.41  44 3.41  42 3.41  41 3.41
  26  0.662  0.662  0.338-  71 2.71  95 2.71 131 2.72  70 2.80  98 2.80 104 2.80 134 2.80  80 2.80
                           130 2.81  79 2.87 133 2.87 107 2.87  54 3.32  40 3.37  43 3.37  49 3.37
  27  0.662  0.662  0.662- 131 2.72  71 2.72  96 2.72  80 2.80  99 2.80  72 2.80 134 2.80 105 2.80
                           132 2.81 108 2.86  81 2.86 135 2.87  54 3.33  49 3.37  43 3.37  41 3.37
  28  0.167  0.167  0.167- 118 1.96  83 1.96  58 1.96  82 1.98 109 1.98  55 1.98  10 3.41   2 3.42
                             4 3.42   5 3.42  11 3.42  13 3.43   1 3.43  14 3.49
  29  0.167  0.167  0.500- 119 1.96  59 1.96  56 1.97  83 1.97 110 1.97  84 1.97   6 3.41  11 3.41
                             5 3.41  12 3.42   2 3.42   3 3.42  15 3.44  14 3.44
  30  0.167  0.167  0.833- 120 1.96  60 1.96  84 1.96 111 1.98  57 1.98  82 1.98  10 3.41   4 3.41
                             3 3.42   1 3.42  12 3.42  13 3.42   6 3.42  15 3.49
  31  0.167  0.500  0.167- 121 1.96  86 1.96  58 1.97  61 1.97 112 1.97  85 1.97   5 3.41  13 3.41
                             8 3.41  16 3.41   4 3.42   7 3.42  17 3.44  14 3.44
  32  0.168  0.500  0.500- 122 1.88  87 1.98  59 1.98  86 1.98  62 1.98 113 1.99  15 3.37  17 3.37
                            14 3.37  18 3.37   9 3.41   6 3.41   8 3.41   5 3.41
  33  0.167  0.500  0.833- 123 1.96  87 1.96 114 1.97  85 1.97  63 1.97  60 1.97   9 3.41  13 3.41
                            16 3.41   6 3.41   4 3.42   7 3.42  15 3.44  18 3.44
  34  0.167  0.833  0.167-  89 1.96  61 1.96 124 1.96 115 1.98  88 1.98  55 1.98   2 3.41   7 3.41
                            10 3.41  16 3.42  11 3.42   8 3.43   1 3.43  17 3.49
  35  0.167  0.833  0.500- 125 1.96  62 1.96  89 1.97  56 1.97 116 1.97  90 1.97  11 3.41   9 3.41
                             8 3.41  12 3.42   2 3.42   3 3.42  17 3.44  18 3.44
  36  0.167  0.833  0.833-  63 1.96 126 1.96  90 1.96  88 1.98  57 1.98 117 1.98  10 3.41   3 3.41
                             7 3.42  16 3.42   1 3.42  12 3.42   9 3.43  18 3.49
  37  0.500  0.167  0.167-  67 1.96  92 1.96 127 1.97  64 1.97 118 1.97  91 1.97  11 3.41  13 3.41
                            20 3.41  22 3.41  19 3.42  10 3.42  23 3.44  14 3.44
  38  0.500  0.168  0.500-  68 1.88  93 1.98 128 1.98  92 1.98 119 1.98  65 1.99  24 3.37  23 3.37
                            15 3.37  14 3.37  20 3.41  12 3.41  11 3.41  21 3.41
  39  0.500  0.167  0.833-  93 1.96  69 1.96 120 1.97  91 1.97  66 1.97 129 1.97  12 3.41  21 3.41
                            13 3.41  19 3.41  22 3.42  10 3.42  24 3.44  15 3.44
  40  0.500  0.500  0.168-  95 1.88  67 1.98 121 1.98  70 1.98 130 1.98  94 1.99  26 3.37  14 3.37
                            17 3.37  23 3.37  13 3.41  22 3.41  25 3.41  16 3.41
  41  0.500  0.500  0.832-  96 1.88 132 1.98  69 1.98 123 1.98  72 1.98  94 1.99  18 3.37  24 3.37
                            27 3.37  15 3.38  22 3.41  13 3.41  16 3.41  25 3.41
  42  0.500  0.833  0.167-  98 1.96  70 1.96 124 1.97  64 1.97 133 1.97  97 1.97  25 3.41  16 3.41
                            11 3.41  20 3.41  10 3.42  19 3.42  26 3.44  17 3.44
  43  0.500  0.832  0.500-  71 1.88 134 1.98 125 1.98  98 1.98  99 1.98  65 1.99  26 3.37  27 3.37
                            18 3.37  17 3.37  20 3.41  12 3.41  11 3.41  21 3.41
  44  0.500  0.833  0.833-  72 1.96  99 1.96  97 1.97 135 1.97  66 1.97 126 1.97  25 3.41  16 3.41
                            12 3.41  21 3.41  19 3.41  10 3.42  27 3.44  18 3.44
  45  0.833  0.167  0.167-  76 1.96 127 1.96 101 1.96 100 1.98  73 1.98 109 1.98   2 3.41  19 3.42
                             4 3.42   5 3.42   1 3.42  22 3.42  20 3.43  23 3.49
  46  0.833  0.167  0.500- 128 1.96  77 1.96 101 1.97 110 1.97  74 1.97 102 1.97   6 3.41  20 3.41
                            21 3.41   5 3.41   2 3.42   3 3.42  23 3.44  24 3.44
  47  0.833  0.167  0.833-  78 1.96 102 1.96 129 1.96 100 1.98 111 1.98  75 1.98   4 3.41  19 3.42
                             3 3.42   1 3.42  22 3.42  21 3.42   6 3.42  24 3.49
  48  0.833  0.500  0.167- 104 1.96 130 1.96 112 1.97  79 1.97 103 1.97  76 1.97   8 3.41   5 3.41
                            22 3.41  25 3.41   7 3.41   4 3.42  26 3.44  23 3.44
  49  0.831  0.500  0.500- 131 1.88  77 1.98 105 1.98 104 1.98  80 1.98 113 1.99  27 3.37  23 3.37
                            26 3.37  24 3.37   8 3.41   9 3.41   6 3.41   5 3.41
  50  0.833  0.500  0.833- 105 1.96 132 1.96  78 1.97  81 1.97 114 1.97 103 1.97  22 3.41   9 3.41
                             6 3.42   7 3.42  25 3.42   4 3.42  24 3.44  27 3.44
  51  0.833  0.833  0.167- 107 1.96  79 1.96 133 1.96 106 1.98  73 1.98 115 1.98   2 3.41   7 3.41
                            19 3.42  25 3.42   1 3.43  20 3.43   8 3.43  26 3.49
  52  0.833  0.833  0.500-  80 1.96 134 1.96 116 1.97  74 1.97 108 1.97 107 1.97  20 3.41  21 3.41
                             8 3.41   9 3.41   2 3.42   3 3.42  27 3.44  26 3.44
  53  0.833  0.833  0.833- 108 1.96  81 1.96 135 1.96 117 1.98 106 1.98  75 1.98   3 3.41   7 3.41
                            19 3.41  21 3.42   1 3.42  25 3.42   9 3.43  27 3.49
  54  0.500  0.500  0.500- 122 2.04 131 2.04  68 2.04  96 2.04  71 2.04  95 2.04  26 3.32  14 3.32
                            18 3.32  17 3.32  23 3.32  24 3.32  15 3.33  27 3.33
  55  0.167  1.000  0.167-  34 1.98  28 1.98  10 2.78   2 2.78   1 2.79  11 2.80
  56  0.166  1.000  0.500-  29 1.97  35 1.97   2 2.78   3 2.79  11 2.79  12 2.80
  57  0.166  0.000  0.834-  30 1.98  36 1.98   1 2.78  10 2.78   3 2.79  12 2.81
  58  0.167  0.333  0.166-  28 1.96  31 1.97   4 2.78   5 2.79  13 2.79  14 2.86
  59  0.165  0.332  0.500-  29 1.96  32 1.98   6 2.76   5 2.76  15 2.80  14 2.81
  60  0.167  0.333  0.834-  30 1.96  33 1.97   4 2.79  13 2.79   6 2.80  15 2.86
  61  0.166  0.667  0.166-  34 1.96  31 1.97   7 2.78   8 2.80  16 2.80  17 2.87
  62  0.165  0.668  0.500-  35 1.96  32 1.98   9 2.76   8 2.77  17 2.80  18 2.80
  63  0.166  0.667  0.834-  36 1.96  33 1.97   7 2.78   9 2.79  16 2.80  18 2.86
  64  0.500  0.000  0.166-  37 1.97  42 1.97  19 2.78  10 2.78  11 2.80  20 2.80
  65  0.500  0.000  0.500-  38 1.99  43 1.99  12 2.77  20 2.77  11 2.77  21 2.77
  66  0.500  1.000  0.834-  39 1.97  44 1.97  19 2.78  10 2.79  21 2.79  12 2.80
  67  0.500  0.332  0.165-  37 1.96  40 1.98  13 2.76  22 2.76  14 2.81  23 2.81
  68  0.500  0.328  0.500-  38 1.88  54 2.04  23 2.71  24 2.72  14 2.72  15 2.72
  69  0.500  0.332  0.835-  39 1.96  41 1.98  13 2.76  22 2.77  15 2.81  24 2.81
  70  0.500  0.668  0.165-  42 1.96  40 1.98  25 2.76  16 2.77  26 2.80  17 2.80
  71  0.500  0.672  0.500-  43 1.88  54 2.04  26 2.71  17 2.72  18 2.72  27 2.72
  72  0.500  0.668  0.835-  44 1.96  41 1.98  25 2.76  16 2.77  27 2.80  18 2.80
  73  0.833  0.000  0.167-  51 1.98  45 1.98   2 2.78  19 2.79   1 2.79  20 2.81
  74  0.834  1.000  0.500-  46 1.97  52 1.97   3 2.78   2 2.78  21 2.79  20 2.80
  75  0.833  0.000  0.833-  47 1.98  53 1.98   3 2.78  19 2.78   1 2.79  21 2.80
  76  0.834  0.333  0.167-  45 1.96  48 1.97   4 2.79   5 2.79  22 2.80  23 2.86
  77  0.835  0.332  0.500-  46 1.96  49 1.98   5 2.76   6 2.76  23 2.80  24 2.81
  78  0.833  0.333  0.834-  47 1.96  50 1.97   4 2.78  22 2.79   6 2.80  24 2.86
  79  0.834  0.667  0.166-  51 1.96  48 1.97   7 2.78  25 2.79   8 2.80  26 2.87
  80  0.835  0.668  0.500-  52 1.96  49 1.98   8 2.76   9 2.77  27 2.80  26 2.80
  81  0.833  0.667  0.834-  53 1.96  50 1.97   7 2.78  25 2.80   9 2.80  27 2.86
  82  0.167  0.167  0.000-  28 1.98  30 1.98  10 2.78   4 2.79   1 2.79  13 2.80
  83  0.166  0.167  0.333-  28 1.96  29 1.97   2 2.78   5 2.79  11 2.80  14 2.86
  84  0.166  0.166  0.667-  30 1.96  29 1.97   3 2.78   6 2.79  12 2.80  15 2.87
  85  0.166  0.500  1.000-  33 1.97  31 1.97   4 2.78   7 2.78  13 2.80  16 2.80
  86  0.165  0.500  0.332-  31 1.96  32 1.98   8 2.76   5 2.77  17 2.80  14 2.80
  87  0.165  0.500  0.668-  33 1.96  32 1.98   9 2.76   6 2.76  15 2.80  18 2.80
  88  0.167  0.833  0.000-  34 1.98  36 1.98   7 2.78  10 2.79   1 2.79  16 2.80
  89  0.166  0.833  0.333-  34 1.96  35 1.97   2 2.78   8 2.80  11 2.80  17 2.87
  90  0.166  0.834  0.667-  36 1.96  35 1.97   3 2.78  12 2.79   9 2.80  18 2.87
  91  0.500  0.165  1.000-  39 1.97  37 1.97  10 2.78  19 2.78  13 2.79  22 2.80
  92  0.500  0.165  0.332-  37 1.96  38 1.98  20 2.76  11 2.77  23 2.80  14 2.80
  93  0.500  0.165  0.668-  39 1.96  38 1.98  21 2.76  12 2.76  24 2.80  15 2.80
  94  0.500  0.500  1.000-  40 1.99  41 1.99  16 2.77  25 2.77  13 2.77  22 2.77
  95  0.500  0.500  0.328-  40 1.88  54 2.04  14 2.71  26 2.71  23 2.72  17 2.72
  96  0.500  0.500  0.672-  41 1.88  54 2.04  18 2.72  24 2.72  27 2.72  15 2.72
  97  0.500  0.834  1.000-  44 1.97  42 1.97  10 2.78  19 2.79  16 2.79  25 2.80
  98  0.500  0.835  0.332-  42 1.96  43 1.98  20 2.76  11 2.76  26 2.80  17 2.81
  99  0.500  0.835  0.668-  44 1.96  43 1.98  21 2.76  12 2.76  27 2.80  18 2.80
 100  0.833  0.167  0.000-  45 1.98  47 1.98   4 2.78   1 2.79  19 2.79  22 2.80
 101  0.833  0.166  0.333-  45 1.96  46 1.97   2 2.78  20 2.79   5 2.80  23 2.86
 102  0.834  0.167  0.667-  47 1.96  46 1.97   3 2.78   6 2.79  21 2.80  24 2.86
 103  0.835  0.500  0.000-  48 1.97  50 1.97   7 2.77   4 2.78  22 2.80  25 2.80
 104  0.835  0.500  0.332-  48 1.96  49 1.98   8 2.76   5 2.77  26 2.80  23 2.80
 105  0.835  0.500  0.668-  50 1.96  49 1.98   9 2.76   6 2.76  24 2.80  27 2.80
 106  0.833  0.833  1.000-  51 1.98  53 1.98   7 2.78  19 2.79   1 2.79  25 2.80
 107  0.834  0.834  0.333-  51 1.96  52 1.97   2 2.78  20 2.79   8 2.80  26 2.87
 108  0.833  0.834  0.667-  53 1.96  52 1.97   3 2.78  21 2.79   9 2.80  27 2.86
 109  0.000  0.167  0.167-  28 1.98  45 1.98   2 2.78   4 2.79   1 2.79   5 2.80
 110  1.000  0.166  0.500-  46 1.97  29 1.97   2 2.78   3 2.78   6 2.79   5 2.80
 111  0.000  0.167  0.834-  30 1.98  47 1.98   4 2.78   1 2.79   3 2.79   6 2.80
 112  0.000  0.500  0.166-  31 1.97  48 1.97   4 2.78   7 2.78   5 2.79   8 2.79
 113  0.000  0.500  0.500-  32 1.99  49 1.99   8 2.76   9 2.76   6 2.77   5 2.77
 114  0.000  0.500  0.834-  33 1.97  50 1.97   4 2.78   7 2.78   9 2.79   6 2.80
 115  1.000  0.833  0.167-  34 1.98  51 1.98   2 2.78   7 2.78   1 2.79   8 2.81
 116  1.000  0.834  0.500-  52 1.97  35 1.97   3 2.78   2 2.78   9 2.79   8 2.80
 117  1.000  0.833  0.833-  53 1.98  36 1.98   3 2.78   7 2.79   1 2.79   9 2.80
 118  0.333  0.166  0.167-  28 1.96  37 1.97  10 2.79  11 2.79  13 2.80  14 2.86
 119  0.332  0.165  0.500-  29 1.96  38 1.98  11 2.77  12 2.77  15 2.80  14 2.80
 120  0.333  0.166  0.833-  30 1.96  39 1.97  10 2.78  12 2.79  13 2.80  15 2.87
 121  0.332  0.500  0.165-  31 1.96  40 1.98  16 2.76  13 2.76  17 2.80  14 2.80
 122  0.328  0.500  0.500-  32 1.88  54 2.04  15 2.71  14 2.71  17 2.72  18 2.72
 123  0.332  0.500  0.835-  33 1.96  41 1.98  16 2.76  13 2.77  18 2.80  15 2.81
 124  0.333  0.833  0.167-  34 1.96  42 1.97  10 2.79  11 2.79  16 2.80  17 2.86
 125  0.332  0.835  0.500-  35 1.96  43 1.98  11 2.76  12 2.77  17 2.80  18 2.80
 126  0.333  0.834  0.833-  36 1.96  44 1.97  10 2.78  12 2.79  16 2.80  18 2.86
 127  0.667  0.166  0.166-  45 1.96  37 1.97  19 2.78  22 2.80  20 2.80  23 2.87
 128  0.668  0.165  0.500-  46 1.96  38 1.98  21 2.76  20 2.76  24 2.80  23 2.80
 129  0.667  0.167  0.834-  47 1.96  39 1.97  19 2.78  22 2.79  21 2.80  24 2.86
 130  0.668  0.500  0.165-  48 1.96  40 1.98  22 2.76  25 2.76  26 2.81  23 2.81
 131  0.672  0.500  0.500-  49 1.88  54 2.04  26 2.72  27 2.72  23 2.72  24 2.72
 132  0.668  0.500  0.835-  50 1.96  41 1.98  22 2.76  25 2.76  24 2.80  27 2.81
 133  0.667  0.834  0.166-  51 1.96  42 1.97  19 2.78  25 2.79  20 2.80  26 2.87
 134  0.668  0.835  0.500-  52 1.96  43 1.98  20 2.76  21 2.77  27 2.80  26 2.80
 135  0.667  0.834  0.834-  53 1.96  44 1.97  19 2.78  25 2.79  21 2.80  27 2.87


IMPORTANT INFORMATION: All symmetrisations will be switched off!
NOSYMM: (Re-)initialisation of all symmetry stuff for point group C_1.


----------------------------------------------------------------------------------------

                                     Primitive cell

  volume of cell :    1652.6864

  direct lattice vectors                    reciprocal lattice vectors
    11.823066970  0.000000000  0.000000000     0.084580423  0.000000000  0.000000000
     0.000000000 11.823066970  0.000000000     0.000000000  0.084580423  0.000000000
     0.000000000  0.000000000 11.823066970     0.000000000  0.000000000  0.084580423

  length of vectors
    11.823066970 11.823066970 11.823066970     0.084580423  0.084580423  0.084580423

  position of ions in fractional coordinates (direct lattice)
     0.999995547  0.000120001  0.999821233
     0.999863302  0.999881891  0.332866596
     0.999892846  0.999902904  0.667148799
     0.000153878  0.333179473  0.999926213
     0.000044697  0.334425136  0.334178285
     0.000112223  0.334323351  0.665417755
     0.999887132  0.666898555  0.000087443
     0.999962271  0.665331860  0.334514348
     0.000126772  0.665379980  0.665489951
     0.332876810  0.000040214  0.000014883
     0.334406356  0.000053804  0.334342316
     0.334547707  0.000014112  0.665707405
     0.334457563  0.334507871  0.000027674
     0.337676364  0.337743542  0.337720684
     0.337392036  0.337587478  0.662175000
     0.334472412  0.665670129  0.000019093
     0.337619493  0.662167747  0.337772071
     0.337798135  0.662285197  0.662289320
     0.666855288  0.000013516  0.999805274
     0.665507778  0.999989162  0.334502293
     0.665717849  0.000009047  0.665764540
     0.665620879  0.334589445  0.000007880
     0.662392591  0.337590358  0.337751387
     0.662305223  0.337595230  0.662435686
     0.665550532  0.665719799  0.000122494
     0.662058680  0.662206134  0.337704004
     0.662428012  0.662478459  0.662234714
     0.167261046  0.167202693  0.167287103
     0.166696991  0.166695765  0.499956813
     0.167266472  0.167205842  0.832837384
     0.166809712  0.500007465  0.166767087
     0.168435281  0.499927149  0.500034975
     0.166840595  0.500057434  0.833196154
     0.167119736  0.832750489  0.167244694
     0.166797255  0.833266313  0.499919235
     0.167228541  0.832767761  0.832818406
     0.500000804  0.166759201  0.166753764
     0.500067560  0.168492048  0.500067689
     0.499931532  0.166752827  0.833235290
     0.500004559  0.499952393  0.168328837
     0.500022999  0.500032565  0.831500938
     0.499944041  0.833227385  0.166824472
     0.500007277  0.831630457  0.499988237
     0.500075600  0.833166918  0.833281359
     0.832772045  0.167215867  0.167152061
     0.833227783  0.166755678  0.499945839
     0.832808895  0.167410657  0.832861296
     0.833291714  0.500054237  0.166846557
     0.831491186  0.500011862  0.500019198
     0.833300437  0.500015221  0.833207997
     0.832796755  0.832866041  0.167135620
     0.833211078  0.833211257  0.499999161
     0.832845724  0.832748855  0.832782274
     0.500017744  0.499920027  0.500028306
     0.166731552  0.999938424  0.166696668
     0.165846114  0.999993054  0.499580972
     0.166406240  0.000008305  0.833788825
     0.166588745  0.333271620  0.166468579
     0.164705819  0.332267284  0.500108021
     0.167084918  0.333249796  0.833505704
     0.166290806  0.666758426  0.166428509
     0.165270843  0.667722485  0.500091359
     0.166409059  0.666862639  0.833500617
     0.500005880  0.000013926  0.165599835
     0.499916036  0.000122117  0.500000695
     0.500379114  0.999972205  0.834261020
     0.499845829  0.332255374  0.164617075
     0.500235268  0.327662722  0.500041429
     0.499630329  0.332336425  0.835242999
     0.500067645  0.667685480  0.165198572
     0.499957625  0.672301720  0.499889318
     0.500176165  0.667756501  0.834873458
     0.833314418  0.000022344  0.166502420
     0.834316544  0.999998545  0.500196247
     0.833342050  0.000100689  0.833279162
     0.833559577  0.333185863  0.166653263
     0.835103029  0.332350373  0.499803146
     0.833421228  0.333370136  0.833668292
     0.833555130  0.666826072  0.166425902
     0.834839453  0.667738958  0.500035972
     0.833488250  0.666734705  0.833517419
     0.167040501  0.166927220  0.000099997
     0.166234209  0.166553812  0.333231940
     0.166101911  0.166091870  0.666774309
     0.165539206  0.500037619  0.999973100
     0.165223835  0.500025376  0.332360155
     0.164976210  0.500077809  0.667698334
     0.166738138  0.832981480  0.000060948
     0.166190168  0.833420884  0.333218053
     0.166438981  0.833909251  0.666743536
     0.499640417  0.165467174  0.999958030
     0.500179340  0.165063640  0.332315518
     0.500138334  0.165053549  0.667741370
     0.499887052  0.500234645  0.999978409
     0.500050400  0.499781519  0.327641709
     0.500079808  0.500011614  0.672343122
     0.499532533  0.834157928  0.999986957
     0.500131392  0.835207460  0.332319546
     0.500147198  0.834961139  0.667678573
     0.833376467  0.166840476  0.000031490
     0.833459584  0.166215441  0.333218960
     0.833682431  0.166637357  0.666833927
     0.834942112  0.500066077  0.000051874
     0.834980313  0.500150324  0.332329782
     0.835071843  0.499868225  0.667692648
     0.833476007  0.833146728  0.999980632
     0.833559208  0.833854128  0.333172729
     0.833235887  0.833589105  0.666790359
     0.000039460  0.166779007  0.166773742
     0.999957878  0.165551381  0.499976345
     0.000068082  0.167198645  0.833508346
     0.000054569  0.499911479  0.166038793
     0.000038407  0.500262750  0.500007338
     0.000112852  0.499917462  0.834193508
     0.999966987  0.833356903  0.166664740
     0.999978300  0.834165690  0.500164958
     0.999952845  0.833209705  0.833075597
     0.333200460  0.166331561  0.166861022
     0.332259441  0.165371371  0.500020396
     0.333246430  0.165846745  0.833245023
     0.332293713  0.500104734  0.164838053
     0.327773255  0.499605247  0.500071750
     0.332320260  0.500422821  0.835010163
     0.333160148  0.833447396  0.166720616
     0.332335944  0.835024158  0.499837332
     0.333185221  0.833727899  0.833453026
     0.666717724  0.166424487  0.166273573
     0.667761597  0.165019235  0.500177523
     0.666754022  0.166701578  0.833629012
     0.667776907  0.499896471  0.164707717
     0.672271499  0.499966138  0.500076270
     0.667702095  0.499875006  0.835271192
     0.666751901  0.833602453  0.166057419
     0.667657566  0.835070740  0.499902405
     0.666812676  0.833732482  0.833998755

  ion indices of the primitive-cell ions
   primitive index   ion index
                 1           1
                 2           2
                 3           3
                 4           4
                 5           5
                 6           6
                 7           7
                 8           8
                 9           9
                10          10
                11          11
                12          12
                13          13
                14          14
                15          15
                16          16
                17          17
                18          18
                19          19
                20          20
                21          21
                22          22
                23          23
                24          24
                25          25
                26          26
                27          27
                28          28
                29          29
                30          30
                31          31
                32          32
                33          33
                34          34
                35          35
                36          36
                37          37
                38          38
                39          39
                40          40
                41          41
                42          42
                43          43
                44          44
                45          45
                46          46
                47          47
                48          48
                49          49
                50          50
                51          51
                52          52
                53          53
                54          54
                55          55
                56          56
                57          57
                58          58
                59          59
                60          60
                61          61
                62          62
                63          63
                64          64
                65          65
                66          66
                67          67
                68          68
                69          69
                70          70
                71          71
                72          72
                73          73
                74          74
                75          75
                76          76
                77          77
                78          78
                79          79
                80          80
                81          81
                82          82
                83          83
                84          84
                85          85
                86          86
                87          87
                88          88
                89          89
                90          90
                91          91
                92          92
                93          93
                94          94
                95          95
                96          96
                97          97
                98          98
                99          99
               100         100
               101         101
               102         102
               103         103
               104         104
               105         105
               106         106
               107         107
               108         108
               109         109
               110         110
               111         111
               112         112
               113         113
               114         114
               115         115
               116         116
               117         117
               118         118
               119         119
               120         120
               121         121
               122         122
               123         123
               124         124
               125         125
               126         126
               127         127
               128         128
               129         129
               130         130
               131         131
               132         132
               133         133
               134         134
               135         135

----------------------------------------------------------------------------------------



 KPOINTS: K-Points

Automatic generation of k-mesh.
 Grid dimensions read from file:
 generate k-points for:    2    2    2

 Generating k-lattice:

  Cartesian coordinates                     Fractional coordinates (reciprocal lattice)
     0.042290211  0.000000000  0.000000000     0.500000000  0.000000000  0.000000000
     0.000000000  0.042290211  0.000000000     0.000000000  0.500000000  0.000000000
     0.000000000  0.000000000  0.042290211     0.000000000  0.000000000  0.500000000

  Length of vectors
     0.042290211  0.042290211  0.042290211

  Shift w.r.t. Gamma in fractional coordinates (k-lattice)
     0.500000000  0.500000000  0.500000000


 Subroutine IBZKPT returns following result:
 ===========================================

 Found      4 irreducible k-points:

 Following reciprocal coordinates:
            Coordinates               Weight
  0.250000  0.250000  0.250000      2.000000
 -0.250000  0.250000  0.250000      2.000000
 -0.250000 -0.250000  0.250000      2.000000
  0.250000 -0.250000  0.250000      2.000000

 Following cartesian coordinates:
            Coordinates               Weight
  0.021145  0.021145  0.021145      2.000000
 -0.021145  0.021145  0.021145      2.000000
 -0.021145 -0.021145  0.021145      2.000000
  0.021145 -0.021145  0.021145      2.000000


 Subroutine IBZKPT_HF returns following result:
 ==============================================

 Found      8 k-points in 1st BZ
 the following      8 k-points will be used (e.g. in the exchange kernel)
 Following reciprocal coordinates:   # in IRBZ
  0.250000  0.250000  0.250000    0.12500000   1 t-inv F
 -0.250000  0.250000  0.250000    0.12500000   2 t-inv F
 -0.250000 -0.250000  0.250000    0.12500000   3 t-inv F
  0.250000 -0.250000  0.250000    0.12500000   4 t-inv F
 -0.250000 -0.250000 -0.250000    0.12500000   1 t-inv T
  0.250000 -0.250000 -0.250000    0.12500000   2 t-inv T
  0.250000  0.250000 -0.250000    0.12500000   3 t-inv T
 -0.250000  0.250000 -0.250000    0.12500000   4 t-inv T


--------------------------------------------------------------------------------------------------------




 Dimension of arrays:
   k-points           NKPTS =      4   k-points in BZ     NKDIM =      4   number of bands    NBANDS=    624
   number of dos      NEDOS =    301   number of ions     NIONS =    135
   non local maximal  LDIM  =      6   non local SUM 2l+1 LMDIM =     18
   total plane-waves  NPLWV = 216000
   max r-space proj   IRMAX =   2294   max aug-charges    IRDMAX=   7862
   dimension x,y,z NGX =    60 NGY =   60 NGZ =   60
   dimension x,y,z NGXF=   120 NGYF=  120 NGZF=  120
   support grid    NGXF=   120 NGYF=  120 NGZF=  120
   ions per type =              27  26   1  81
   NGX,Y,Z   is equivalent  to a cutoff of   8.44,  8.44,  8.44 a.u.
   NGXF,Y,Z  is equivalent  to a cutoff of  16.87, 16.87, 16.87 a.u.

 SYSTEM =  unknown system
 POSCAR =  Sr Ti Ni  O

 Startparameter for this run:
   NWRITE =      2    write-flag & timer
   PREC   = normal    normal or accurate (medium, high low for compatibility)
   ISTART =      0    job   : 0-new  1-cont  2-samecut
   ICHARG =      2    charge: 1-file 2-atom 10-const
   ISPIN  =      2    spin polarized calculation?
   LNONCOLLINEAR =      F non collinear calculations
   LSORBIT =      F    spin-orbit coupling
   INIWAV =      1    electr: 0-lowe 1-rand  2-diag
   LASPH  =      F    aspherical Exc in radial PAW
 Electronic Relaxation 1
   ENCUT  =  400.0 eV  29.40 Ry    5.42 a.u.  19.28 19.28 19.28*2*pi/ulx,y,z
   ENINI  =  400.0     initial cutoff
   ENAUG  =  703.4 eV  augmentation charge cutoff
   NELM   =     80;   NELMIN=  4; NELMDL= -5     # of ELM steps
   EDIFF  = 0.1E-04   stopping-criterion for ELM
   LREAL  =      T    real-space projection
   NLSPLINE    = F    spline interpolate recip. space projectors
   LCOMPAT=      F    compatible to vasp.4.4
   GGA_COMPAT  = T    GGA compatible to vasp.4.4-vasp.4.6
   LMAXPAW     = -100 max onsite density
   LMAXMIX     =    2 max onsite mixed and CHGCAR
   VOSKOWN=      0    Vosko Wilk Nusair interpolation
   ROPT   =   -0.00050  -0.00050  -0.00050  -0.00050
 Ionic relaxation
   EDIFFG = 0.1E-03   stopping-criterion for IOM
   NSW    =      0    number of steps for IOM
   NBLOCK =      1;   KBLOCK =      1    inner block; outer block
   IBRION =     -1    ionic relax: 0-MD 1-quasi-New 2-CG
   NFREE  =      0    steps in history (QN), initial steepest desc. (CG)
   ISIF   =      2    stress and relaxation
   IWAVPR =     10    prediction:  0-non 1-charg 2-wave 3-comb
   ISYM   =      0    0-nonsym 1-usesym 2-fastsym
   LCORR  =      T    Harris-Foulkes like correction to forces

   POTIM  = 0.5000    time-step for ionic-motion
   TEIN   =    0.0    initial temperature
   TEBEG  =    0.0;   TEEND  =   0.0 temperature during run
   SMASS  =  -3.00    Nose mass-parameter (am)
   estimated Nose-frequenzy (Omega)   =  0.10E-29 period in steps = 0.13E+47 mass=  -0.319E-26a.u.
   SCALEE = 1.0000    scale energy and forces
   NPACO  =    256;   APACO  = 10.0  distance and # of slots for P.C.
   PSTRESS=    0.0 pullay stress

  Mass of Ions in am
   POMASS =  87.62 47.88 58.69 16.00
  Ionic Valenz
   ZVAL   =  10.00 10.00 16.00  6.00
  Atomic Wigner-Seitz radii
   RWIGS  =  -1.00 -1.00 -1.00 -1.00
  virtual crystal weights
   VCA    =   1.00  1.00  1.00  1.00
   NELECT =    1034.0000    total number of electrons
   NUPDOWN=       2.0000    fix difference up-down

 DOS related values:
   EMIN   =  10.00;   EMAX   =-10.00  energy-range for DOS
   EFERMI =   0.00
   ISMEAR =     0;   SIGMA  =   0.10  broadening in eV -4-tet -1-fermi 0-gaus

 Electronic relaxation 2 (details)
   IALGO  =     38    algorithm
   LDIAG  =      T    sub-space diagonalisation (order eigenvalues)
   LSUBROT=      F    optimize rotation matrix (better conditioning)
   TURBO    =      0    0=normal 1=particle mesh
   IRESTART =      0    0=no restart 2=restart with 2 vectors
   NREBOOT  =      0    no. of reboots
   NMIN     =      0    reboot dimension
   EREF     =   0.00    reference energy to select bands
   IMIX   =      4    mixing-type and parameters
     AMIX     =   0.40;   BMIX     =  1.00
     AMIX_MAG =   1.60;   BMIX_MAG =  1.00
     AMIN     =   0.10
     WC   =   100.;   INIMIX=   1;  MIXPRE=   1;  MAXMIX= -45

 Intra band minimization:
   WEIMIN = 0.0000     energy-eigenvalue tresh-hold
   EBREAK =  0.40E-08  absolut break condition
   DEPER  =   0.30     relativ break condition

   TIME   =   0.40     timestep for ELM

  volume/ion in A,a.u.               =      12.24        82.61
  Fermi-wavevector in a.u.,A,eV,Ry     =   1.400183  2.645963 26.674398  1.960513
  Thomas-Fermi vector in A             =   2.523169

 Write flags
   LWAVE        =      F    write WAVECAR
   LDOWNSAMPLE  =      F    k-point downsampling of WAVECAR
   LCHARG       =      F    write CHGCAR
   LVTOT        =      F    write LOCPOT, total local potential
   LVHAR        =      F    write LOCPOT, Hartree potential only
   LELF         =      F    write electronic localiz. function (ELF)
   LORBIT       =      0    0 simple, 1 ext, 2 COOP (PROOUT), +10 PAW based schemes


 Dipole corrections
   LMONO  =      F    monopole corrections only (constant potential shift)
   LDIPOL =      F    correct potential (dipole corrections)
   IDIPOL =      0    1-x, 2-y, 3-z, 4-all directions
   EPSILON=  1.0000000 bulk dielectric constant

 LDA+U is selected, type is set to LDAUTYPE =  2
   angular momentum for each species LDAUL =    -1    2    2   -1
   U (eV)           for each species LDAUU =   0.0  3.0  6.0  0.0
   J (eV)           for each species LDAUJ =   0.0  0.0  0.0  0.0
 Exchange correlation treatment:
   GGA     =    --    GGA type
   LEXCH   =     8    internal setting for exchange type
   LIBXC   =     F    Libxc
   VOSKOWN =     0    Vosko Wilk Nusair interpolation
   LHFCALC =     F    Hartree Fock is set to
   LHFONE  =     F    Hartree Fock one center treatment
   AEXX    =    0.0000 exact exchange contribution

 Linear response parameters
   LEPSILON=     T    determine dielectric tensor
   LRPA    =     F    only Hartree local field effects (RPA)
   LNABLA  =     F    use nabla operator in PAW spheres
   LVEL    =     F    velocity operator in full k-point grid
   CSHIFT  =0.1000    complex shift for real part using Kramers Kronig
   OMEGAMAX=  -1.0    maximum frequency
   DEG_THRESHOLD= 0.2000000E-02 threshold for treating states as degnerate
   RTIME   =   -0.100 relaxation time in fs
  (WPLASMAI=    0.000 imaginary part of plasma frequency in eV, 0.658/RTIME)
   DFIELD  = 0.0000000 0.0000000 0.0000000 field for delta impulse in time

  Optional k-point grid parameters
   LKPOINTS_OPT  =     F    use optional k-point grid
   KPOINTS_OPT_MODE=     1    mode for optional k-point grid

 Orbital magnetization related:
   ORBITALMAG=     F  switch on orbital magnetization
   LCHIMAG   =     F  perturbation theory with respect to B field
   DQ        =  0.001000  dq finite difference perturbation B field
   LLRAUG    =     F  two centre corrections for induced B field

 PEAD related settings:
   LPEAD      =     T    switch on PEAD
   IPEAD      =     4    finite difference order for dpsi/dk
   LCALCPOL   =     F    calculate macroscopic polarization
   LCALCEPS   =     F    calculate dielectric tensor
   EFIELD_PEAD=    0.0000    0.0000    0.0000
   SKIP_EDOTP =     F
   LRPA       =     F
   SKIP_SCF   =     F


--------------------------------------------------------------------------------------------------------


 Static calculation
 charge density and potential will be updated during run
 spin polarized calculation
 Variant of blocked Davidson
 Davidson routine will perform the subspace rotation
 perform sub-space diagonalisation
    after iterative eigenvector-optimisation
 modified Broyden-mixing scheme, WC =      100.0
 initial mixing is a Kerker type mixing with AMIX =  0.4000 and BMIX =      1.0000
 Hartree-type preconditioning will be used
 using additional bands          107
 real space projection scheme for non local part
 use partial core corrections
 calculate Harris-corrections to forces   (improved forces if not selfconsistent)
 use gradient corrections
 use of overlap-Matrix (Vanderbilt PP)
 Gauss-broadening in eV      SIGMA  =   0.10


--------------------------------------------------------------------------------------------------------


  energy-cutoff  :      400.00
  volume of cell :     1652.69
      direct lattice vectors                 reciprocal lattice vectors
    11.823066970  0.000000000  0.000000000     0.084580423  0.000000000  0.000000000
     0.000000000 11.823066970  0.000000000     0.000000000  0.084580423  0.000000000
     0.000000000  0.000000000 11.823066970     0.000000000  0.000000000  0.084580423

  length of vectors
    11.823066970 11.823066970 11.823066970     0.084580423  0.084580423  0.084580423



 k-points in units of 2pi/SCALE and weight: K-Points
   0.02114511  0.02114511  0.02114511       0.250
  -0.02114511  0.02114511  0.02114511       0.250
  -0.02114511 -0.02114511  0.02114511       0.250
   0.02114511 -0.02114511  0.02114511       0.250

 k-points in reciprocal lattice and weights: K-Points
   0.25000000  0.25000000  0.25000000       0.250
  -0.25000000  0.25000000  0.25000000       0.250
  -0.25000000 -0.25000000  0.25000000       0.250
   0.25000000 -0.25000000  0.25000000       0.250

 position of ions in fractional coordinates (direct lattice)
   0.99999555  0.00012000  0.99982123
   0.99986330  0.99988189  0.33286660
   0.99989285  0.99990290  0.66714880
   0.00015388  0.33317947  0.99992621
   0.00004470  0.33442514  0.33417828
   0.00011222  0.33432335  0.66541775
   0.99988713  0.66689856  0.00008744
   0.99996227  0.66533186  0.33451435
   0.00012677  0.66537998  0.66548995
   0.33287681  0.00004021  0.00001488
   0.33440636  0.00005380  0.33434232
   0.33454771  0.00001411  0.66570741
   0.33445756  0.33450787  0.00002767
   0.33767636  0.33774354  0.33772068
   0.33739204  0.33758748  0.66217500
   0.33447241  0.66567013  0.00001909
   0.33761949  0.66216775  0.33777207
   0.33779814  0.66228520  0.66228932
   0.66685529  0.00001352  0.99980527
   0.66550778  0.99998916  0.33450229
   0.66571785  0.00000905  0.66576454
   0.66562088  0.33458945  0.00000788
   0.66239259  0.33759036  0.33775139
   0.66230522  0.33759523  0.66243569
   0.66555053  0.66571980  0.00012249
   0.66205868  0.66220613  0.33770400
   0.66242801  0.66247846  0.66223471
   0.16726105  0.16720269  0.16728710
   0.16669699  0.16669577  0.49995681
   0.16726647  0.16720584  0.83283738
   0.16680971  0.50000746  0.16676709
   0.16843528  0.49992715  0.50003498
   0.16684060  0.50005743  0.83319615
   0.16711974  0.83275049  0.16724469
   0.16679725  0.83326631  0.49991923
   0.16722854  0.83276776  0.83281841
   0.50000080  0.16675920  0.16675376
   0.50006756  0.16849205  0.50006769
   0.49993153  0.16675283  0.83323529
   0.50000456  0.49995239  0.16832884
   0.50002300  0.50003257  0.83150094
   0.49994404  0.83322738  0.16682447
   0.50000728  0.83163046  0.49998824
   0.50007560  0.83316692  0.83328136
   0.83277204  0.16721587  0.16715206
   0.83322778  0.16675568  0.49994584
   0.83280889  0.16741066  0.83286130
   0.83329171  0.50005424  0.16684656
   0.83149119  0.50001186  0.50001920
   0.83330044  0.50001522  0.83320800
   0.83279675  0.83286604  0.16713562
   0.83321108  0.83321126  0.49999916
   0.83284572  0.83274886  0.83278227
   0.50001774  0.49992003  0.50002831
   0.16673155  0.99993842  0.16669667
   0.16584611  0.99999305  0.49958097
   0.16640624  0.00000831  0.83378883
   0.16658875  0.33327162  0.16646858
   0.16470582  0.33226728  0.50010802
   0.16708492  0.33324980  0.83350570
   0.16629081  0.66675843  0.16642851
   0.16527084  0.66772249  0.50009136
   0.16640906  0.66686264  0.83350062
   0.50000588  0.00001393  0.16559984
   0.49991604  0.00012212  0.50000070
   0.50037911  0.99997221  0.83426102
   0.49984583  0.33225537  0.16461708
   0.50023527  0.32766272  0.50004143
   0.49963033  0.33233643  0.83524300
   0.50006765  0.66768548  0.16519857
   0.49995763  0.67230172  0.49988932
   0.50017617  0.66775650  0.83487346
   0.83331442  0.00002234  0.16650242
   0.83431654  0.99999854  0.50019625
   0.83334205  0.00010069  0.83327916
   0.83355958  0.33318586  0.16665326
   0.83510303  0.33235037  0.49980315
   0.83342123  0.33337014  0.83366829
   0.83355513  0.66682607  0.16642590
   0.83483945  0.66773896  0.50003597
   0.83348825  0.66673471  0.83351742
   0.16704050  0.16692722  0.00010000
   0.16623421  0.16655381  0.33323194
   0.16610191  0.16609187  0.66677431
   0.16553921  0.50003762  0.99997310
   0.16522383  0.50002538  0.33236015
   0.16497621  0.50007781  0.66769833
   0.16673814  0.83298148  0.00006095
   0.16619017  0.83342088  0.33321805
   0.16643898  0.83390925  0.66674354
   0.49964042  0.16546717  0.99995803
   0.50017934  0.16506364  0.33231552
   0.50013833  0.16505355  0.66774137
   0.49988705  0.50023465  0.99997841
   0.50005040  0.49978152  0.32764171
   0.50007981  0.50001161  0.67234312
   0.49953253  0.83415793  0.99998696
   0.50013139  0.83520746  0.33231955
   0.50014720  0.83496114  0.66767857
   0.83337647  0.16684048  0.00003149
   0.83345958  0.16621544  0.33321896
   0.83368243  0.16663736  0.66683393
   0.83494211  0.50006608  0.00005187
   0.83498031  0.50015032  0.33232978
   0.83507184  0.49986822  0.66769265
   0.83347601  0.83314673  0.99998063
   0.83355921  0.83385413  0.33317273
   0.83323589  0.83358911  0.66679036
   0.00003946  0.16677901  0.16677374
   0.99995788  0.16555138  0.49997634
   0.00006808  0.16719864  0.83350835
   0.00005457  0.49991148  0.16603879
   0.00003841  0.50026275  0.50000734
   0.00011285  0.49991746  0.83419351
   0.99996699  0.83335690  0.16666474
   0.99997830  0.83416569  0.50016496
   0.99995285  0.83320970  0.83307560
   0.33320046  0.16633156  0.16686102
   0.33225944  0.16537137  0.50002040
   0.33324643  0.16584675  0.83324502
   0.33229371  0.50010473  0.16483805
   0.32777325  0.49960525  0.50007175
   0.33232026  0.50042282  0.83501016
   0.33316015  0.83344740  0.16672062
   0.33233594  0.83502416  0.49983733
   0.33318522  0.83372790  0.83345303
   0.66671772  0.16642449  0.16627357
   0.66776160  0.16501924  0.50017752
   0.66675402  0.16670158  0.83362901
   0.66777691  0.49989647  0.16470772
   0.67227150  0.49996614  0.50007627
   0.66770209  0.49987501  0.83527119
   0.66675190  0.83360245  0.16605742
   0.66765757  0.83507074  0.49990241
   0.66681268  0.83373248  0.83399876

 position of ions in cartesian coordinates  (Angst):
  11.82301433  0.00141878 11.82095340
  11.82145078 11.82167056  3.93550405
  11.82180008 11.82191899  7.88774493
   0.00181931  3.93920322 11.82219458
   0.00052846  3.95393077  3.95101224
   0.00132682  3.95272737  7.86727868
  11.82173253  7.88478628  0.00103384
  11.82262089  7.86626314  3.95498554
   0.00149884  7.86683206  7.86813225
   3.93562482  0.00047545  0.00017596
   3.95370874  0.00063613  3.95295160
   3.95537995  0.00016684  7.87070324
   3.95431417  3.95490896  0.00032719
   3.99237027  3.99316451  3.99289427
   3.98900864  3.99131936  7.82893937
   3.95448973  7.87026252  0.00022574
   3.99169788  7.82885362  3.99350182
   3.99380997  7.83024223  7.83029099
   7.88427473  0.00015980 11.82076472
   7.86834303 11.82293883  3.95484301
   7.87082671  0.00010696  7.87137874
   7.86968023  3.95587342  0.00009317
   7.83151197  3.99135341  3.99325727
   7.83047901  3.99141102  7.83202148
   7.86884851  7.87084977  0.00144825
   7.82756411  7.82930747  3.99269705
   7.83193074  7.83252719  7.82964537
   1.97753854  1.97684863  1.97784662
   1.97086968  1.97085519  5.91102288
   1.97760270  1.97688587  9.84669216
   1.97220240  5.91162174  1.97169843
   1.99142161  5.91067217  5.91194700
   1.97256753  5.91221254  9.85093392
   1.97586783  9.84566480  1.97734522
   1.97205511  9.85176343  5.91057859
   1.97715424  9.84586901  9.84646779
   5.91154299  1.97160520  1.97154092
   5.91233225  1.99209277  5.91233378
   5.91072399  1.97152984  9.85139663
   5.91158739  5.91097062  1.99016312
   5.91180540  5.91191850  9.83089128
   5.91087187  9.85130317  1.97237691
   5.91161952  9.83242259  5.91139441
   5.91242730  9.85058827  9.85194131
   9.84591966  1.97700439  1.97625001
   9.85130788  1.97156355  5.91089313
   9.84635534  1.97930741  9.84697488
   9.85206374  5.91217473  1.97263802
   9.83077597  5.91167373  5.91176047
   9.85216687  5.91171344  9.85107395
   9.84621180  9.84703097  1.97605563
   9.85111038  9.85111249  5.91152357
   9.84679077  9.84564548  9.84604059
   5.91174327  5.91058796  5.91186815
   1.97127831 11.82233895  1.97086587
   1.96080971 11.82298485  5.90657929
   1.96743212  0.00009819  9.85794112
   1.96958989  3.94029268  1.96816916
   1.94732793  3.92841835  5.91281063
   1.97545618  3.94003466  9.85459375
   1.96606734  7.88312952  1.96769540
   1.95400824  7.89452766  5.91261363
   1.96746545  7.88436164  9.85453361
   5.91160301  0.00016464  1.95789795
   5.91054077  0.00144380  5.91154171
   5.91601577 11.82273835  9.86352391
   5.90971071  3.92827754  1.94627870
   5.91431508  3.87397831  5.91202331
   5.90716284  3.92923581  9.87513392
   5.91233326  7.89409015  1.95315378
   5.91103248  7.94866826  5.91022488
   5.91361630  7.89492983  9.87076481
   9.85233217  0.00026418  1.96856926
   9.86418037 11.82304976  5.91385373
   9.85265887  0.00119045  9.85191534
   9.85523070  3.93927878  1.97035269
   9.87347904  3.92940072  5.90920606
   9.85359499  3.94145744  9.85651604
   9.85517812  7.88392931  1.96766458
   9.87036277  7.89472242  5.91195879
   9.85438740  7.88284907  9.85473227
   1.97493103  1.97359170  0.00118227
   1.96539819  1.96917687  3.93982354
   1.96383402  1.96371530  7.88331730
   1.95718111  5.91197826 11.82274893
   1.95345247  5.91183351  3.92951637
   1.95052478  5.91245343  7.89424212
   1.97135617  9.84839583  0.00072060
   1.96487748  9.85359093  3.93965935
   1.96781922  9.85936492  7.88295347
   5.90728211  1.95632948 11.82257075
   5.91365383  1.95155847  3.92898862
   5.91316902  1.95143916  7.89475094
   5.91019810  5.91430771 11.82281169
   5.91212937  5.90895037  3.87372987
   5.91247706  5.91167079  7.94915776
   5.90600659  9.86230504 11.82291277
   5.91308694  9.87471373  3.92903624
   5.91327381  9.87180146  7.89400848
   9.85306578  1.97256612  0.00037230
   9.85404848  1.96517630  3.93967008
   9.85668322  1.97016463  7.88402217
   9.87157650  5.91231472  0.00061331
   9.87202816  5.91331078  3.92915726
   9.87311033  5.90997550  7.89417490
   9.85424265  9.85034957 11.82283798
   9.85522634  9.85871320  3.93912349
   9.85140369  9.85557982  7.88350706
   0.00046654  1.97183937  1.97177712
  11.82256896  1.95732506  5.91125381
   0.00080494  1.97680077  9.85462500
   0.00064517  5.91048689  1.96308778
   0.00045409  5.91463999  5.91162024
   0.00133425  5.91055763  9.86272572
  11.82267665  9.85283448  1.97048838
  11.82281041  9.86239681  5.91348380
  11.82250946  9.85109414  9.84950857
   3.93945135  1.96654918  1.97280904
   3.92832562  1.95519679  5.91177463
   3.93999486  1.96081718  9.85151171
   3.92873082  5.91277176  1.94889134
   3.87528514  5.90686629  5.91238179
   3.92904469  5.91653253  9.87238107
   3.93897474  9.85390438  1.97114901
   3.92923013  9.87254654  5.90961025
   3.93927118  9.85722078  9.85397094
   7.88264830  1.96764785  1.96586358
   7.89499008  1.95103347  5.91363235
   7.88307746  1.97092392  9.85605164
   7.89517109  5.91030945  1.94735037
   7.94831095  5.91113313  5.91243523
   7.89428658  5.91005568  9.87546724
   7.88305238  9.85573763  1.96330799
   7.89376012  9.87309729  5.91037962
   7.88377093  9.85727498  9.86042313



--------------------------------------------------------------------------------------------------------


 k-point   1 :   0.2500 0.2500 0.2500  plane waves:   30052
 k-point   2 :  -0.2500 0.2500 0.2500  plane waves:   30052
 k-point   3 :  -0.2500-0.2500 0.2500  plane waves:   30052
 k-point   4 :   0.2500-0.2500 0.2500  plane waves:   30052

 maximum and minimum number of plane-waves per node :     30052    30052

 maximum number of plane-waves:     30052
 maximum index in each direction:
   IXMAX=   19   IYMAX=   19   IZMAX=   19
   IXMIN=  -19   IYMIN=  -19   IZMIN=  -19


 serial   3D FFT for wavefunctions
 parallel 3D FFT for charge:
    minimum data exchange during FFTs selected (reduces bandwidth)


 total amount of memory used by VASP MPI-rank0   255694. kBytes
=======================================================================

   base      :      30000. kBytes
   nonlr-proj:      29910. kBytes
   fftplans  :       4751. kBytes
   grid      :      28608. kBytes
   one-center:       4199. kBytes
   wavefun   :     158226. kBytes

     INWAV:  cpu time      0.0000: real time      0.0004
 Broyden mixing: mesh for mixing (old mesh)
   NGX = 39   NGY = 39   NGZ = 39
  (NGX  =120   NGY  =120   NGZ  =120)
  gives a total of  59319 points

 initial charge density was supplied:
 charge density of overlapping atoms calculated
 number of electron    1032.0000000 magnetization       2.0000000
 keeping initial charge density in first step


--------------------------------------------------------------------------------------------------------


 Maximum index for non-local projection operator         2184
 Maximum index for augmentation-charges          725 (set IRDMAX)


--------------------------------------------------------------------------------------------------------


 First call to EWALD:  gamma=   0.150
 Maximum number of real-space cells 3x 3x 3
 Maximum number of reciprocal cells 3x 3x 3

    FEWALD:  cpu time      0.0569: real time      0.0590


--------------------------------------- Iteration      1(   1)  ---------------------------------------


    POTLOK:  cpu time      0.2028: real time      0.2052
    SETDIJ:  cpu time      0.0246: real time      0.0249
     EDDAV:  cpu time     15.8105: real time     15.9656
       DOS:  cpu time      0.0025: real time      0.0032
    --------------------------------------------
      LOOP:  cpu time     16.0406: real time     16.1990

 eigenvalue-minimisations  :  9984
 total energy-change (2. order) : 0.1191899E+05  (-0.4423459E+05)
 number of electron    1032.0000000 magnetization       2.0000000
 augmentation part     1032.0000000 magnetization       2.0000000

 Free energy of the ion-electron system (eV)
  ---------------------------------------------------
  alpha Z        PSCENC =      6168.37953727
  Ewald energy   TEWEN  =    -70151.12656179
  -Hartree energ DENC   =    -19426.44792714
  -exchange      EXHF   =         0.00000000
  -V(xc)+E(xc)   XCENC  =      4247.46325349
  PAW double counting   =     69316.86519745   -69167.47871075
  entropy T*S    EENTRO =        -0.21601302
  eigenvalues    EBANDS =      2547.94097905
  atomic energy  EATOM  =     88383.60695459
  Solvation  Ediel_sol  =         0.00000000
  ---------------------------------------------------
  free energy    TOTEN  =     11918.98670916 eV

  energy without entropy =    11919.20272218  energy(sigma->0) =    11919.09471567


--------------------------------------------------------------------------------------------------------




--------------------------------------- Iteration      1(   2)  ---------------------------------------


     EDDAV:  cpu time     15.7979: real time     15.9519
       DOS:  cpu time      0.0021: real time      0.0023
    --------------------------------------------
      LOOP:  cpu time     15.7999: real time     15.9542

 eigenvalue-minimisations  :  9984
 total energy-change (2. order) :-0.1089542E+05  (-0.1040555E+05)
 number of electron    1032.0000000 magnetization       2.0000000
 augmentation part     1032.0000000 magnetization       2.0000000

 Free energy of the ion-electron system (eV)
  ---------------------------------------------------
  alpha Z        PSCENC =      6168.37953727
  Ewald energy   TEWEN  =    -70151.12656179
  -Hartree energ DENC   =    -19426.44792714
  -exchange      EXHF   =         0.00000000
  -V(xc)+E(xc)   XCENC  =      4247.46325349
  PAW double counting   =     69316.86519745   -69167.47871075
  entropy T*S    EENTRO =        -0.18151131
  eigenvalues    EBANDS =     -8347.51305710
  atomic energy  EATOM  =     88383.60695459
  Solvation  Ediel_sol  =         0.00000000
  ---------------------------------------------------
  free energy    TOTEN  =      1023.56717472 eV

  energy without entropy =     1023.74868603  energy(sigma->0) =     1023.65793037


--------------------------------------------------------------------------------------------------------




--------------------------------------- Iteration      1(   3)  ---------------------------------------


     EDDAV:  cpu time     18.1279: real time     18.3065
       DOS:  cpu time      0.0017: real time      0.0019
    --------------------------------------------
      LOOP:  cpu time     18.1296: real time     18.3084

 eigenvalue-minimisations  : 11904
 total energy-change (2. order) :-0.2172474E+04  (-0.2115804E+04)
 number of electron    1032.0000000 magnetization       2.0000000
 augmentation part     1032.0000000 magnetization       2.0000000

 Free energy of the ion-electron system (eV)
  ---------------------------------------------------
  alpha Z        PSCENC =      6168.37953727
  Ewald energy   TEWEN  =    -70151.12656179
  -Hartree energ DENC   =    -19426.44792714
  -exchange      EXHF   =         0.00000000
  -V(xc)+E(xc)   XCENC  =      4247.46325349
  PAW double counting   =     69316.86519745   -69167.47871075
  entropy T*S    EENTRO =        -0.00000000
  eigenvalues    EBANDS =    -10520.16820532
  atomic energy  EATOM  =     88383.60695459
  Solvation  Ediel_sol  =         0.00000000
  ---------------------------------------------------
  free energy    TOTEN  =     -1148.90646220 eV

  energy without entropy =    -1148.90646220  energy(sigma->0) =    -1148.90646220


--------------------------------------------------------------------------------------------------------




--------------------------------------- Iteration      1(   4)  ---------------------------------------


     EDDAV:  cpu time     20.9733: real time     21.1835
       DOS:  cpu time      0.0019: real time      0.0021
    --------------------------------------------
      LOOP:  cpu time     20.9752: real time     21.1856

 eigenvalue-minimisations  : 14384
 total energy-change (2. order) :-0.1390508E+03  (-0.1384153E+03)
 number of electron    1032.0000000 magnetization       2.0000000
 augmentation part     1032.0000000 magnetization       2.0000000

 Free energy of the ion-electron system (eV)
  ---------------------------------------------------
  alpha Z        PSCENC =      6168.37953727
  Ewald energy   TEWEN  =    -70151.12656179
  -Hartree energ DENC   =    -19426.44792714
  -exchange      EXHF   =         0.00000000
  -V(xc)+E(xc)   XCENC  =      4247.46325349
  PAW double counting   =     69316.86519745   -69167.47871075
  entropy T*S    EENTRO =        -0.00000000
  eigenvalues    EBANDS =    -10659.21904355
  atomic energy  EATOM  =     88383.60695459
  Solvation  Ediel_sol  =         0.00000000
  ---------------------------------------------------
  free energy    TOTEN  =     -1287.95730043 eV

  energy without entropy =    -1287.95730043  energy(sigma->0) =    -1287.95730043


--------------------------------------------------------------------------------------------------------




--------------------------------------- Iteration      1(   5)  ---------------------------------------


     EDDAV:  cpu time     26.1535: real time     26.4128
       DOS:  cpu time      0.0017: real time      0.0019
    CHARGE:  cpu time      0.2395: real time      0.2416
    MIXING:  cpu time      0.0072: real time      0.0079
    --------------------------------------------
      LOOP:  cpu time     26.4019: real time     26.6643

 eigenvalue-minimisations  : 18592
 total energy-change (2. order) :-0.5397191E+01  (-0.5389286E+01)
 number of electron    1034.0006245 magnetization       1.9999917
 augmentation part      195.1175116 magnetization       1.3288880

 Broyden mixing:
  rms(total) = 0.15654E+02    rms(broyden)= 0.15650E+02
  rms(prec ) = 0.17487E+02
  weight for this iteration     100.00

 Free energy of the ion-electron system (eV)
  ---------------------------------------------------
  alpha Z        PSCENC =      6168.37953727
  Ewald energy   TEWEN  =    -70151.12656179
  -Hartree energ DENC   =    -19426.44792714
  -exchange      EXHF   =         0.00000000
  -V(xc)+E(xc)   XCENC  =      4247.46325349
  PAW double counting   =     69316.86519745   -69167.47871075
  entropy T*S    EENTRO =        -0.00000000
  eigenvalues    EBANDS =    -10664.61623456
  atomic energy  EATOM  =     88383.60695459
  Solvation  Ediel_sol  =         0.00000000
  ---------------------------------------------------
  free energy    TOTEN  =     -1293.35449143 eV

  energy without entropy =    -1293.35449143  energy(sigma->0) =    -1293.35449143


--------------------------------------------------------------------------------------------------------




--------------------------------------- Iteration      1(   6)  ---------------------------------------


    POTLOK:  cpu time      0.1898: real time      0.1915
    SETDIJ:  cpu time      0.0300: real time      0.0302
     EDDAV:  cpu time     19.8521: real time     20.0444
       DOS:  cpu time      0.0018: real time      0.0022
    CHARGE:  cpu time      0.2233: real time      0.2249
    MIXING:  cpu time      0.0082: real time      0.0083
    --------------------------------------------
      LOOP:  cpu time     20.3053: real time     20.5015

 eigenvalue-minimisations  : 13408
 total energy-change (2. order) : 0.2982919E+03  (-0.1597135E+03)
 number of electron    1034.0003997 magnetization       1.9999864
 augmentation part      198.3276359 magnetization       1.5145821

 Broyden mixing:
  rms(total) = 0.80970E+01    rms(broyden)= 0.80935E+01
  rms(prec ) = 0.82392E+01
  weight for this iteration     100.00

 eigenvalues of (default mixing * dielectric matrix)
  average eigenvalue GAMMA=   0.9302
  0.9302

 Free energy of the ion-electron system (eV)
  ---------------------------------------------------
  alpha Z        PSCENC =      6168.37953727
  Ewald energy   TEWEN  =    -70151.12656179
  -Hartree energ DENC   =    -19822.44948969
  -exchange      EXHF   =         0.00000000
  -V(xc)+E(xc)   XCENC  =      4316.19700561
  PAW double counting   =     86482.15546906   -86508.31934124
  entropy T*S    EENTRO =        -0.00000000
  eigenvalues    EBANDS =     -9863.50620230
  atomic energy  EATOM  =     88383.60695459
  Solvation  Ediel_sol  =         0.00000000
  ---------------------------------------------------
  free energy    TOTEN  =      -995.06262847 eV

  energy without entropy =     -995.06262847  energy(sigma->0) =     -995.06262847


--------------------------------------------------------------------------------------------------------




--------------------------------------- Iteration      1(   7)  ---------------------------------------


    POTLOK:  cpu time      0.1903: real time      0.1918
    SETDIJ:  cpu time      0.0308: real time      0.0310
     EDDAV:  cpu time     19.7238: real time     19.9124
       DOS:  cpu time      0.0017: real time      0.0020
    CHARGE:  cpu time      0.2432: real time      0.2451
    MIXING:  cpu time      0.0080: real time      0.0081
    --------------------------------------------
      LOOP:  cpu time     20.1978: real time     20.3903

 eigenvalue-minimisations  : 13216
 total energy-change (2. order) :-0.1006275E+02  (-0.2113382E+02)
 number of electron    1034.0004275 magnetization       1.9999779
 augmentation part      194.1464478 magnetization       1.4241691

 Broyden mixing:
  rms(total) = 0.54928E+01    rms(broyden)= 0.54924E+01
  rms(prec ) = 0.55761E+01
  weight for this iteration     100.00

 eigenvalues of (default mixing * dielectric matrix)
  average eigenvalue GAMMA=   1.3279
  0.8144  1.8415

 Free energy of the ion-electron system (eV)
  ---------------------------------------------------
  alpha Z        PSCENC =      6168.37953727
  Ewald energy   TEWEN  =    -70151.12656179
  -Hartree energ DENC   =    -19612.54013376
  -exchange      EXHF   =         0.00000000
  -V(xc)+E(xc)   XCENC  =      4298.12926450
  PAW double counting   =     99730.45009463   -99814.53376737
  entropy T*S    EENTRO =        -0.00000000
  eigenvalues    EBANDS =    -10007.49076960
  atomic energy  EATOM  =     88383.60695459
  Solvation  Ediel_sol  =         0.00000000
  ---------------------------------------------------
  free energy    TOTEN  =     -1005.12538152 eV

  energy without entropy =    -1005.12538152  energy(sigma->0) =    -1005.12538152


--------------------------------------------------------------------------------------------------------




--------------------------------------- Iteration      1(   8)  ---------------------------------------


    POTLOK:  cpu time      0.1859: real time      0.1881
    SETDIJ:  cpu time      0.0298: real time      0.0299
     EDDAV:  cpu time     19.5568: real time     19.7453
       DOS:  cpu time      0.0018: real time      0.0023
    CHARGE:  cpu time      0.2397: real time      0.2418
    MIXING:  cpu time      0.0081: real time      0.0081
    --------------------------------------------
      LOOP:  cpu time     20.0221: real time     20.2156

 eigenvalue-minimisations  : 13056
 total energy-change (2. order) : 0.8127020E+00  (-0.4976986E+01)
 number of electron    1034.0004237 magnetization       1.9999779
 augmentation part      198.8156906 magnetization       1.4474609

 Broyden mixing:
  rms(total) = 0.24260E+01    rms(broyden)= 0.24256E+01
  rms(prec ) = 0.25367E+01
  weight for this iteration     100.00

 eigenvalues of (default mixing * dielectric matrix)
  average eigenvalue GAMMA=   1.2497
  2.2423  0.9201  0.5867

 Free energy of the ion-electron system (eV)
  ---------------------------------------------------
  alpha Z        PSCENC =      6168.37953727
  Ewald energy   TEWEN  =    -70151.12656179
  -Hartree energ DENC   =    -19127.07159512
  -exchange      EXHF   =         0.00000000
  -V(xc)+E(xc)   XCENC  =      4273.40636415
  PAW double counting   =    123011.19502946  -123187.39891478
  entropy T*S    EENTRO =        -0.00000000
  eigenvalues    EBANDS =    -10375.30349331
  atomic energy  EATOM  =     88383.60695459
  Solvation  Ediel_sol  =         0.00000000
[...]
  x     0.00011     0.00015     0.00026    -0.00018    -0.00002    -0.00034
  y    -0.00026     0.00007    -0.00029    -0.00015    -0.00001     0.00001
  z    -0.00029    -0.00010     0.00040     0.00002    -0.00004     0.00016

 BORN EFFECTIVE CHARGES (including local field effects) (in |e|, cummulative output)
 ---------------------------------------------------------------------------------
 ion    1
    1     2.56858     0.00077    -0.00092
    2    -0.00023     2.56572    -0.00082
    3    -0.00152    -0.00075     2.56864
 ion    2
    1     2.55073     0.00055    -0.00034
    2     0.00016     2.55076     0.00144
    3     0.00043     0.00101     2.58689
 ion    3
    1     2.55085     0.00088     0.00111
    2     0.00009     2.55169    -0.00144
    3     0.00014    -0.00116     2.58703
 ion    4
    1     2.54975    -0.00031     0.00079
    2     0.00004     2.59071     0.00072
    3     0.00123     0.00043     2.54857
 ion    5
    1     2.52143    -0.00070     0.00074
    2    -0.00002     2.59389    -0.02260
    3     0.00030    -0.02312     2.59559
 ion    6
    1     2.52109     0.00082    -0.00148
    2     0.00010     2.59580     0.02192
    3    -0.00179     0.02207     2.59386
 ion    7
    1     2.55274    -0.00031     0.00035
    2     0.00153     2.58867    -0.00026
    3     0.00004     0.00087     2.54746
 ion    8
    1     2.52079     0.00061    -0.00025
    2     0.00132     2.59534     0.02302
    3     0.00043     0.02256     2.59453
 ion    9
    1     2.51973    -0.00183    -0.00014
    2    -0.00020     2.59499    -0.02195
    3    -0.00026    -0.02174     2.59607
 ion   10
    1     2.58927    -0.00058     0.00102
    2     0.00007     2.55075    -0.00062
    3     0.00036     0.00005     2.54899
 ion   11
    1     2.59385    -0.00153    -0.02289
    2    -0.00035     2.52060    -0.00113
    3    -0.02345    -0.00158     2.59586
 ion   12
    1     2.59292     0.00065     0.02212
    2     0.00054     2.52320     0.00150
    3     0.02241     0.00146     2.59496
 ion   13
    1     2.59831    -0.02166     0.00009
    2    -0.02199     2.59148     0.00018
    3     0.00052     0.00085     2.52115
 ion   14
    1     2.63471    -0.12226    -0.12230
    2    -0.12286     2.63750    -0.12141
    3    -0.12208    -0.12084     2.63617
 ion   15
    1     2.63458    -0.12384     0.12289
    2    -0.12383     2.63477     0.12168
    3     0.12167     0.12081     2.63825
 ion   16
    1     2.59455     0.02241     0.00112
    2     0.02218     2.59626    -0.00043
    3     0.00029    -0.00079     2.51971
 ion   17
    1     2.63554     0.12335    -0.12220
    2     0.12310     2.63519     0.12321
    3    -0.12286     0.12220     2.63674
 ion   18
    1     2.63568     0.12271     0.12132
    2     0.12329     2.63447    -0.12326
    3     0.12307    -0.12345     2.63732
 ion   19
    1     2.58698    -0.00062     0.00046
    2    -0.00054     2.54949     0.00085
    3     0.00123     0.00092     2.55313
 ion   20
    1     2.59596     0.00082     0.02354
    2     0.00021     2.52210    -0.00053
    3     0.02329    -0.00082     2.59260
 ion   21
    1     2.59584    -0.00008    -0.02414
    2    -0.00081     2.52108    -0.00047
    3    -0.02282     0.00044     2.59484
 ion   22
    1     2.59250     0.02112    -0.00126
    2     0.02100     2.59360    -0.00030
    3    -0.00145     0.00120     2.52427
 ion   23
    1     2.63710     0.12240     0.12127
    2     0.12241     2.63525    -0.12252
    3     0.12144    -0.12253     2.63554
 ion   24
    1     2.63532     0.12211    -0.12052
    2     0.12326     2.63667     0.12281
    3    -0.12025     0.12164     2.63552
 ion   25
    1     2.59350    -0.02073     0.00082
    2    -0.02235     2.59449    -0.00031
    3     0.00024    -0.00123     2.52265
 ion   26
    1     2.63752    -0.12379     0.12275
    2    -0.12394     2.63425     0.12310
    3     0.12286     0.12335     2.63640
 ion   27
    1     2.63777    -0.12226    -0.12350
    2    -0.12246     2.63423    -0.12187
    3    -0.12287    -0.12215     2.63544
 ion   28
    1     6.78908    -0.03564    -0.03246
    2    -0.03331     6.78125    -0.03356
    3    -0.03892    -0.03460     6.79030
 ion   29
    1     6.72002    -0.08191    -0.00025
    2    -0.08956     6.72120     0.00508
    3    -0.00124    -0.00150     6.85171
 ion   30
    1     6.78832    -0.04256     0.03092
    2    -0.02773     6.78398     0.02871
    3     0.03904     0.03713     6.78148
 ion   31
    1     6.72021     0.00102    -0.09260
    2    -0.00301     6.85246    -0.00073
    3    -0.08297    -0.00064     6.71189
 ion   32
    1     5.99851    -0.00364    -0.00047
    2     0.00107     6.66505     0.00026
    3    -0.00310    -0.00004     6.67075
 ion   33
    1     6.72292     0.00339     0.08954
    2    -0.00511     6.84810     0.00006
    3     0.08777    -0.00063     6.71701
 ion   34
    1     6.78996     0.03216    -0.03051
    2     0.03470     6.78716     0.03494
    3    -0.03524     0.03591     6.79084
 ion   35
    1     6.71925     0.08780    -0.00310
    2     0.08584     6.72175    -0.00440
    3     0.00134     0.00269     6.85452
 ion   36
    1     6.78624     0.03514     0.03521
    2     0.03133     6.78917    -0.03027
    3     0.03491    -0.03834     6.78494
 ion   37
    1     6.85388     0.00018    -0.00382
    2    -0.00154     6.72154    -0.09012
    3     0.00337    -0.08434     6.71538
 ion   38
    1     6.66666    -0.00232     0.00161
    2     0.00146     6.00484     0.00027
    3     0.00036     0.00011     6.66890
 ion   39
    1     6.85165     0.00693     0.00153
    2    -0.00405     6.71568     0.09020
    3    -0.00503     0.08630     6.72091
 ion   40
    1     6.66631    -0.00128    -0.00029
    2     0.00180     6.66909     0.00491
    3     0.00133    -0.00139     6.00444
 ion   41
    1     6.67133    -0.00447     0.00244
    2     0.00251     6.66748    -0.00520
    3    -0.00087     0.00043     6.00323
 ion   42
    1     6.84895     0.00112    -0.00602
    2     0.00025     6.71825     0.08590
    3     0.00357     0.08952     6.71710
 ion   43
    1     6.67587     0.00153     0.00164
    2    -0.00065     5.99801    -0.00071
    3     0.00147    -0.00159     6.67198
 ion   44
    1     6.84591     0.00205     0.00411
    2     0.00303     6.72068    -0.08635
    3    -0.00536    -0.08935     6.71683
 ion   45
    1     6.78512     0.03438     0.03537
    2     0.03384     6.78987    -0.03081
    3     0.03270    -0.03551     6.79004
 ion   46
    1     6.72474     0.08500    -0.00147
    2     0.08749     6.71785    -0.00202
    3     0.00121     0.00326     6.84823
 ion   47
    1     6.78197     0.03493    -0.03202
    2     0.03208     6.78440     0.03527
    3    -0.03231     0.03347     6.78847
 ion   48
    1     6.71793     0.00054     0.09174
    2     0.00007     6.84717    -0.00283
    3     0.08091    -0.00122     6.71691
 ion   49
    1     5.99761     0.00162    -0.00046
    2    -0.00247     6.66960     0.00189
    3     0.00107    -0.00182     6.67153
 ion   50
    1     6.71628     0.00175    -0.08982
    2     0.00223     6.85947    -0.00080
    3    -0.08286     0.00197     6.71595
 ion   51
    1     6.78931    -0.03275     0.03747
    2    -0.03275     6.78859     0.03540
    3     0.03365     0.03908     6.78873
 ion   52
    1     6.72066    -0.08895     0.00125
    2    -0.08498     6.72040    -0.00079
    3    -0.00349    -0.00331     6.84862
 ion   53
    1     6.78878    -0.03670    -0.03920
    2    -0.03311     6.77935    -0.03492
    3    -0.03034    -0.03591     6.78942
 ion   54
    1     2.39241     0.00082     0.00014
    2    -0.00029     2.39266    -0.00001
    3     0.00019     0.00041     2.39339
 ion   55
    1    -1.93299    -0.00219     0.00995
    2    -0.00165    -5.37500    -0.00041
    3     0.01063    -0.00036    -1.93120
 ion   56
    1    -1.90355     0.00388     0.00038
    2    -0.00017    -5.34281    -0.00073
    3     0.00022     0.00036    -1.96576
 ion   57
    1    -1.93421    -0.00277    -0.00946
    2     0.00041    -5.37770    -0.00041
    3    -0.00984    -0.00062    -1.93268
 ion   58
    1    -1.89180     0.02250     0.02068
    2     0.01520    -5.49939     0.01681
    3     0.02060     0.02347    -1.89260
 ion   59
    1    -1.80159     0.07410     0.00013
    2     0.00490    -5.37647    -0.00063
    3     0.00025    -0.00306    -1.96311
 ion   60
    1    -1.89031     0.02008    -0.01964
    2     0.01572    -5.49711    -0.01544
    3    -0.01986    -0.02036    -1.89208
 ion   61
    1    -1.89158    -0.02131     0.02005
    2    -0.01370    -5.50279    -0.01569
    3     0.02003    -0.02206    -1.89214
 ion   62
    1    -1.80249    -0.07904     0.00089
    2    -0.00536    -5.37496     0.00096
    3     0.00062     0.00286    -1.96308
 ion   63
    1    -1.89051    -0.01939    -0.02074
    2    -0.01615    -5.50306     0.01521
    3    -0.02069     0.01958    -1.89034
 ion   64
    1    -1.96587     0.00039     0.00071
    2    -0.00095    -5.33758     0.00012
    3    -0.00031     0.00296    -1.90618
 ion   65
    1    -2.07446    -0.00208     0.00100
    2    -0.00008    -5.09285    -0.00056
    3     0.00095    -0.00159    -2.07557
 ion   66
    1    -1.96966     0.00416    -0.00154
    2     0.00075    -5.33410     0.00091
    3    -0.00054    -0.00067    -1.90619
 ion   67
    1    -1.96249     0.00090     0.00020
    2     0.00041    -5.38056     0.00813
    3    -0.00019     0.07693    -1.79999
 ion   68
    1    -2.07915    -0.00042    -0.00002
    2    -0.00211    -3.82197     0.00077
    3    -0.00004     0.00059    -2.07619
 ion   69
    1    -1.96222     0.00087     0.00079
    2    -0.00112    -5.37587    -0.00542
    3     0.00125    -0.07633    -1.80039
 ion   70
    1    -1.96285    -0.00045     0.00006
    2     0.00136    -5.37756    -0.00730
    3    -0.00071    -0.07857    -1.80121
 ion   71
    1    -2.07853    -0.00015     0.00072
    2    -0.00088    -3.81802    -0.00229
    3     0.00075    -0.00115    -2.07814
 ion   72
    1    -1.96157    -0.00369    -0.00075
    2     0.00018    -5.38111     0.00419
    3     0.00023     0.07650    -1.80137
 ion   73
    1    -1.93205     0.00089    -0.01043
    2    -0.00002    -5.38301    -0.00024
    3    -0.01010    -0.00002    -1.93260
 ion   74
    1    -1.90524    -0.00143    -0.00001
    2     0.00048    -5.33703     0.00035
    3    -0.00002     0.00113    -1.96764
 ion   75
    1    -1.93380     0.00108     0.00970
    2     0.00057    -5.36687    -0.00110
    3     0.00921    -0.00068    -1.93286
 ion   76
    1    -1.89264    -0.02292    -0.02146
    2    -0.01694    -5.49892     0.01431
    3    -0.02074     0.02093    -1.89109
 ion   77
    1    -1.80024    -0.07459    -0.00095
    2    -0.00520    -5.37783    -0.00084
    3    -0.00102     0.00014    -1.96252
 ion   78
    1    -1.89235    -0.02215     0.02019
    2    -0.01650    -5.50892    -0.01487
    3     0.01955    -0.02206    -1.89029
 ion   79
    1    -1.89146     0.02267    -0.02092
    2     0.01690    -5.49939    -0.01332
    3    -0.02010    -0.01916    -1.89133
 ion   80
    1    -1.80233     0.07732     0.00084
    2     0.00583    -5.37974     0.00098
    3     0.00111    -0.00166    -1.96184
 ion   81
    1    -1.88973     0.02175     0.02011
    2     0.01655    -5.50292     0.01497
    3     0.01913     0.02157    -1.89119
 ion   82
    1    -1.93115     0.01077    -0.00125
    2     0.00968    -1.93333    -0.00274
    3     0.00020     0.00090    -5.37702
 ion   83
    1    -1.89093     0.02085     0.02606
    2     0.02109    -1.89141     0.02623
    3     0.01604     0.01517    -5.50469
 ion   84
    1    -1.89243     0.02024    -0.02600
    2     0.01973    -1.89115    -0.02307
    3    -0.01646    -0.01572    -5.49579
 ion   85
    1    -1.90562    -0.00074    -0.00100
    2    -0.00007    -1.96569     0.00044
    3     0.00103     0.00059    -5.33220
 ion   86
    1    -1.80165    -0.00022     0.07560
    2    -0.00002    -1.96151     0.00033
    3     0.00623     0.00064    -5.37566
 ion   87
    1    -1.80056     0.00056    -0.07628
    2     0.00101    -1.96346    -0.00197
    3    -0.00713    -0.00204    -5.38063
 ion   88
    1    -1.93151    -0.00986     0.00213
    2    -0.00981    -1.93306     0.00207
    3     0.00080    -0.00009    -5.37870
 ion   89
    1    -1.89138    -0.01980     0.02137
    2    -0.02001    -1.89145    -0.02564
    3     0.01352    -0.01505    -5.50515
 ion   90
    1    -1.89351    -0.02014    -0.02340
    2    -0.01979    -1.89087     0.02425
    3    -0.01483     0.01545    -5.49929
 ion   91
    1    -1.96542     0.00010    -0.00088
    2     0.00085    -1.90665    -0.00016
    3    -0.00013    -0.00013    -5.33662
 ion   92
    1    -1.96423    -0.00002    -0.00309
    2    -0.00012    -1.80013     0.07511
    3    -0.00103     0.00541    -5.37449
 ion   93
    1    -1.96438    -0.00112     0.00341
    2    -0.00053    -1.79938    -0.07459
    3     0.00088    -0.00487    -5.38094
 ion   94
    1    -2.07696     0.00049     0.00063
    2    -0.00003    -2.07538     0.00122
    3     0.00002     0.00062    -5.09387
 ion   95
    1    -2.07781    -0.00106    -0.00141
    2    -0.00094    -2.07690     0.00193
    3    -0.00085     0.00166    -3.81946
 ion   96
    1    -2.07566     0.00157     0.00066
    2     0.00138    -2.07436    -0.00064
    3     0.00014     0.00031    -3.82158
 ion   97
    1    -1.96727    -0.00022     0.00105
    2    -0.00028    -1.90462    -0.00163
    3     0.00225    -0.00012    -5.33416
 ion   98
    1    -1.96156     0.00024    -0.00303
    2     0.00044    -1.80117    -0.07669
    3    -0.00083    -0.00686    -5.38131
 ion   99
    1    -1.96252     0.00030     0.00149
    2     0.00041    -1.80140     0.07773
    3    -0.00152     0.00646    -5.37746
 ion  100
    1    -1.93164    -0.00918     0.00123
    2    -0.00908    -1.93034     0.00351
    3    -0.00001     0.00162    -5.38528
 ion  101
    1    -1.89147    -0.01974    -0.02235
    2    -0.01981    -1.89175     0.02298
    3    -0.01469     0.01558    -5.49902
 ion  102
    1    -1.89219    -0.02039     0.02313
    2    -0.02040    -1.89249    -0.02598
    3     0.01534    -0.01745    -5.49608
 ion  103
    1    -1.90699    -0.00096     0.00088
    2    -0.00085    -1.96647    -0.00262
    3    -0.00025    -0.00008    -5.33093
 ion  104
    1    -1.80114    -0.00088    -0.07330
    2    -0.00070    -1.96218     0.00092
    3    -0.00441    -0.00015    -5.38092
 ion  105
    1    -1.80037    -0.00049     0.07384
    2    -0.00036    -1.96110     0.00040
    3     0.00479    -0.00050    -5.38027
 ion  106
    1    -1.93298     0.00966    -0.00086
    2     0.00947    -1.93197    -0.00202
    3     0.00127    -0.00065    -5.38171
 ion  107
    1    -1.89119     0.01998    -0.01947
    2     0.01967    -1.89108    -0.02210
    3    -0.01581    -0.01367    -5.49790
 ion  108
    1    -1.89126     0.01969     0.02009
    2     0.01910    -1.89227     0.02449
    3     0.01471     0.01461    -5.50044
 ion  109
    1    -5.37609    -0.00031    -0.00067
    2    -0.00011    -1.93262     0.00912
    3    -0.00412     0.00945    -1.93214
 ion  110
    1    -5.34174     0.00110    -0.00042
    2    -0.00100    -1.90549    -0.00103
    3     0.00122    -0.00080    -1.96698
 ion  111
    1    -5.37684     0.00133    -0.00064
    2     0.00504    -1.93153    -0.00911
    3     0.00158    -0.00953    -1.93214
 ion  112
    1    -5.33428     0.00147     0.00141
    2    -0.00074    -1.96600     0.00026
    3    -0.00069     0.00023    -1.90754
 ion  113
    1    -5.08794     0.00072    -0.00013
    2     0.00132    -2.07477     0.00046
    3    -0.00018     0.00074    -2.07595
 ion  114
    1    -5.33556     0.00074    -0.00004
    2    -0.00360    -1.96453     0.00105
    3     0.00109     0.00089    -1.90825
 ion  115
    1    -5.38313     0.00147    -0.00107
    2     0.00238    -1.93206    -0.01120
    3    -0.00332    -0.01137    -1.93188
 ion  116
    1    -5.33522    -0.00027     0.00093
    2     0.00031    -1.90467     0.00040
    3     0.00073    -0.00003    -1.96609
 ion  117
    1    -5.38121     0.00018    -0.00119
    2    -0.00038    -1.93280     0.01004
    3     0.00226     0.01048    -1.93095
 ion  118
    1    -5.50291     0.01533     0.01653
    2     0.02306    -1.89217     0.02063
    3     0.02399     0.02043    -1.89191
 ion  119
    1    -5.37276     0.00417    -0.00111
    2     0.07527    -1.80136    -0.00092
    3    -0.00259    -0.00050    -1.96256
 ion  120
    1    -5.50432     0.01581    -0.01491
    2     0.02368    -1.89086    -0.01986
    3    -0.02137    -0.02035    -1.89127
 ion  121
    1    -5.37877     0.00077     0.00673
    2     0.00042    -1.96112    -0.00064
    3     0.07963    -0.00029    -1.80061
 ion  122
    1    -3.81706     0.00414    -0.00025
    2     0.00265    -2.07676     0.00055
    3    -0.00093     0.00041    -2.07838
 ion  123
    1    -5.38087    -0.00092    -0.00549
    2    -0.00050    -1.96354     0.00071
    3    -0.07821     0.00052    -1.80042
 ion  124
    1    -5.49982    -0.01567     0.01446
    2    -0.02316    -1.89126    -0.02086
    3     0.02332    -0.02110    -1.89191
 ion  125
    1    -5.38179    -0.00602    -0.00167
    2    -0.07676    -1.80166     0.00032
    3     0.00020     0.00004    -1.96120
 ion  126
    1    -5.49644    -0.01443    -0.01429
    2    -0.02351    -1.88970     0.02030
    3    -0.02495     0.02097    -1.89228
 ion  127
    1    -5.50264    -0.01559    -0.01541
    2    -0.02382    -1.89041     0.02013
    3    -0.02045     0.02016    -1.89140
 ion  128
    1    -5.38006    -0.00582     0.00155
    2    -0.07447    -1.79996     0.00010
    3     0.00148    -0.00024    -1.96320
 ion  129
    1    -5.49584    -0.01703     0.01551
    2    -0.02871    -1.89295    -0.02006
    3     0.02049    -0.01961    -1.89080
 ion  130
    1    -5.37618    -0.00149    -0.00768
    2     0.00063    -1.96260    -0.00087
    3    -0.07940    -0.00064    -1.79979
 ion  131
    1    -3.81969     0.00043    -0.00020
    2     0.00029    -2.07556    -0.00024
    3    -0.00008    -0.00003    -2.07561
 ion  132
    1    -5.37690    -0.00135     0.00495
    2     0.00282    -1.96287     0.00069
    3     0.07759     0.00014    -1.80001
 ion  133
    1    -5.49900     0.01399    -0.01401
    2     0.02128    -1.89214    -0.02098
    3    -0.01957    -0.02130    -1.89142
 ion  134
    1    -5.38167     0.00633    -0.00042
    2     0.07623    -1.80090     0.00098
    3    -0.00236     0.00118    -1.96395
 ion  135
    1    -5.49928     0.01443     0.01691
    2     0.02409    -1.89267     0.01992
    3     0.02323     0.02002    -1.89186


--------------------------------------------------------------------------------------------------------


     LOOP+:  cpu time   3472.3541: real time   3509.1106
    4ORBIT:  cpu time      0.0000: real time      0.0000

 total amount of memory used by VASP MPI-rank0   255694. kBytes
=======================================================================

   base      :      30000. kBytes
   nonlr-proj:      29910. kBytes
   fftplans  :       4751. kBytes
   grid      :      28608. kBytes
   one-center:       4199. kBytes
   wavefun   :     158226. kBytes



 General timing and accounting informations for this job:
 ========================================================

                  Total CPU time used (sec):     3494.264
                            User time (sec):     3463.004
                          System time (sec):       31.260
                         Elapsed time (sec):     3534.931

                   Maximum memory used (kb):     1024536.
                   Average memory used (kb):          N/A

                          Minor page faults:      3780833
                          Major page faults:           53
                 Voluntary context switches:        16811
