 vasp.6.3.0 20Jan22 (build Apr 15 2022 16:02:13) complex
 executed on             LinuxGNU date 2023.03.03  09:29:33
 running   64 mpi-ranks, with    1 threads/rank
 distrk:  each k-point on   16 cores,    4 groups
 distr:  one band on NCORE=   1 cores,   16 groups


--------------------------------------------------------------------------------------------------------


 INCAR:
   ICHARG = 2
   LWAVE = .FALSE.
   LCHARG = .FALSE.
   LVTOT = .FALSE.
   NCORE = 1
   KPAR = 4
   EDIFF = 1E-5
   NELM = 80
   PREC = Normal
   LREAL = Auto
   NELMIN = 4
   LDAU = .TRUE.
   LDAUTYPE = 2
   LDAUL = -1   2      -1
   LDAUU = 0.00 3.00  0.00
   LDAUJ = 0.00 0.00  0.00
   ENCUT = 400.0 eV
   ISPIN = 1
   ISMEAR = 0
   SIGMA = 0.10
   NSW = 0
   LEPSILON = .TRUE.
   LPEAD = .TRUE.
   ISYM = 0

 POTCAR:    PAW_PBE Sr_sv 07Sep2000
 POTCAR:     PAW_PBE Ti_pv 07Sep2000
 POTCAR:     PAW_PBE O 08Apr2002
 POTCAR:    PAW_PBE Sr_sv 07Sep2000
   VRHFIN =Sr: 4s4p5s
   LEXCH  = PE
   EATOM  =   843.0319 eV,   61.9611 Ry

   TITEL  = PAW_PBE Sr_sv 07Sep2000
   LULTRA =        F    use ultrasoft PP ?
   IUNSCR =        1    unscreen: 0-lin 1-nonlin 2-no
   RPACOR =    2.200    partial core radius
   POMASS =   87.620; ZVAL   =   10.000    mass and valenz
   RCORE  =    2.500    outmost cutoff radius
   RWIGS  =    4.040; RWIGS  =    2.138    wigner-seitz radius (au A)
   ENMAX  =  229.353; ENMIN  =  172.014 eV
   RCLOC  =    2.201    cutoff for local pot
   LCOR   =        T    correct aug charges
   LPAW   =        T    paw PP
   EAUG   =  366.804
   DEXC   =    0.000
   RMAX   =    2.547    core radius for proj-oper
   RAUG   =    1.300    factor for augmentation sphere
   RDEP   =    2.562    radius for radial grids
   RDEPT  =    2.128    core radius for aug-charge

   Atomic configuration
   10 entries
     n  l   j            E        occ.
     1  0  0.50    -15934.8930   2.0000
     2  0  0.50     -2157.6250   2.0000
     2  1  1.50     -1917.0034   6.0000
     3  0  0.50      -333.7288   2.0000
     3  1  1.50      -256.0992   6.0000
     3  2  2.50      -127.9971  10.0000
     4  0  0.50       -40.8953   2.0000
     5  0  0.50        -3.5257   1.9990
     4  1  1.50       -22.8179   6.0000
     4  2  1.50        -1.2815   0.0010
   Description
     l       E           TYP  RCUT    TYP  RCUT
     0    -40.8953213     23  2.480
     0     -3.5257161     23  2.480
     1    -22.8178632     23  2.500
     1    -24.1784458     23  2.500
     2     -1.2814598     23  2.500
     2      0.2279365     23  2.500
  local pseudopotential read in
  partial core-charges read in
  partial kinetic energy density read in
  atomic valenz-charges read in
  non local Contribution for L=           0  read in
    real space projection operators read in
  non local Contribution for L=           0  read in
    real space projection operators read in
  non local Contribution for L=           1  read in
    real space projection operators read in
  non local Contribution for L=           1  read in
    real space projection operators read in
  non local Contribution for L=           2  read in
    real space projection operators read in
  non local Contribution for L=           2  read in
    real space projection operators read in
    PAW grid and wavefunctions read in

   number of l-projection  operators is LMAX  =           6
   number of lm-projection operators is LMMAX =          18

 POTCAR:     PAW_PBE Ti_pv 07Sep2000
   VRHFIN =Ti: d3 s1
   LEXCH  = PE
   EATOM  =  1042.5995 eV,   76.6289 Ry

   TITEL  = PAW_PBE Ti_pv 07Sep2000
   LULTRA =        F    use ultrasoft PP ?
   IUNSCR =        1    unscreen: 0-lin 1-nonlin 2-no
   RPACOR =    2.200    partial core radius
   POMASS =   47.880; ZVAL   =   10.000    mass and valenz
   RCORE  =    2.500    outmost cutoff radius
   RWIGS  =    2.500; RWIGS  =    1.323    wigner-seitz radius (au A)
   ENMAX  =  222.335; ENMIN  =  166.751 eV
   RCLOC  =    1.701    cutoff for local pot
   LCOR   =        T    correct aug charges
   LPAW   =        T    paw PP
   EAUG   =  482.848
   DEXC   =    0.000
   RMAX   =    2.564    core radius for proj-oper
   RAUG   =    1.300    factor for augmentation sphere
   RDEP   =    2.538    radius for radial grids
   RDEPT  =    1.952    core radius for aug-charge

   Atomic configuration
    8 entries
     n  l   j            E        occ.
     1  0  0.50     -4865.3608   2.0000
     2  0  0.50      -533.1368   2.0000
     2  1  1.50      -440.5031   6.0000
     3  0  0.50       -59.3186   2.0000
     3  1  1.50       -35.7012   6.0000
     3  2  2.50        -1.9157   3.0000
     4  0  0.50        -3.7291   1.0000
     4  3  2.50        -1.3606   0.0000
   Description
     l       E           TYP  RCUT    TYP  RCUT
     1    -35.7012140     23  2.300
     1     -1.3605826     23  2.300
     2     -1.9156996     23  2.500
     2     -0.4063033     23  2.500
     0     -3.7290856     23  2.500
     0     20.4087390     23  2.500
  local pseudopotential read in
  partial core-charges read in
  partial kinetic energy density read in
  atomic valenz-charges read in
  non local Contribution for L=           1  read in
    real space projection operators read in
  non local Contribution for L=           1  read in
    real space projection operators read in
  non local Contribution for L=           2  read in
    real space projection operators read in
  non local Contribution for L=           2  read in
    real space projection operators read in
  non local Contribution for L=           0  read in
    real space projection operators read in
  non local Contribution for L=           0  read in
    real space projection operators read in
    PAW grid and wavefunctions read in

   number of l-projection  operators is LMAX  =           6
   number of lm-projection operators is LMMAX =          18

 POTCAR:     PAW_PBE O 08Apr2002
   VRHFIN =O: s2p4
   LEXCH  = PE
   EATOM  =   432.3788 eV,   31.7789 Ry

   TITEL  = PAW_PBE O 08Apr2002
   LULTRA =        F    use ultrasoft PP ?
   IUNSCR =        1    unscreen: 0-lin 1-nonlin 2-no
   RPACOR =    1.200    partial core radius
   POMASS =   16.000; ZVAL   =    6.000    mass and valenz
   RCORE  =    1.520    outmost cutoff radius
   RWIGS  =    1.550; RWIGS  =    0.820    wigner-seitz radius (au A)
   ENMAX  =  400.000; ENMIN  =  300.000 eV
   ICORE  =        2    local potential
   LCOR   =        T    correct aug charges
   LPAW   =        T    paw PP
   EAUG   =  605.392
   DEXC   =    0.000
   RMAX   =    1.553    core radius for proj-oper
   RAUG   =    1.300    factor for augmentation sphere
   RDEP   =    1.550    radius for radial grids
   RDEPT  =    1.329    core radius for aug-charge

   Atomic configuration
    4 entries
     n  l   j            E        occ.
     1  0  0.50      -514.6923   2.0000
     2  0  0.50       -23.9615   2.0000
     2  1  0.50        -9.0305   4.0000
     3  2  1.50        -9.5241   0.0000
   Description
     l       E           TYP  RCUT    TYP  RCUT
     0    -23.9615318     23  1.200
     0     -9.5240782     23  1.200
     1     -9.0304911     23  1.520
     1      8.1634956     23  1.520
     2     -9.5240782      7  1.500
  local pseudopotential read in
  partial core-charges read in
  partial kinetic energy density read in
  kinetic energy density of atom read in
  atomic valenz-charges read in
  non local Contribution for L=           0  read in
    real space projection operators read in
  non local Contribution for L=           0  read in
    real space projection operators read in
  non local Contribution for L=           1  read in
    real space projection operators read in
  non local Contribution for L=           1  read in
    real space projection operators read in
    PAW grid and wavefunctions read in

   number of l-projection  operators is LMAX  =           4
   number of lm-projection operators is LMMAX =           8

 Optimization of the real space projectors (new method)

 maximal supplied QI-value         = 15.12
 optimisation between [QCUT,QGAM] = [ 10.13, 20.41] = [ 28.73,116.64] Ry
 Optimized for a Real-space Cutoff    1.60 Angstroem

   l    n(q)    QCUT    max X(q) W(low)/X(q) W(high)/X(q)  e(spline)
   0     10    10.129    11.565    0.27E-04    0.92E-05    0.33E-07
   0     10    10.129    10.214    0.43E-04    0.16E-04    0.67E-07
   1      9    10.129   189.983    0.42E-03    0.33E-03    0.23E-06
   1      9    10.129   193.105    0.42E-03    0.33E-03    0.23E-06
   2      9    10.129   115.941    0.73E-04    0.52E-03    0.39E-06
   2      9    10.129    76.444    0.71E-04    0.51E-03    0.38E-06
 Optimization of the real space projectors (new method)

 maximal supplied QI-value         = 15.12
 optimisation between [QCUT,QGAM] = [ 10.13, 20.41] = [ 28.73,116.64] Ry
 Optimized for a Real-space Cutoff    1.51 Angstroem

   l    n(q)    QCUT    max X(q) W(low)/X(q) W(high)/X(q)  e(spline)
   1      9    10.129     4.216    0.12E-04    0.72E-04    0.60E-07
   1      9    10.129     5.422    0.84E-04    0.21E-03    0.15E-06
   2      8    10.129    72.084    0.33E-03    0.35E-04    0.17E-06
   2      8    10.129    65.965    0.33E-03    0.37E-04    0.17E-06
   0      9    10.129    41.531    0.17E-03    0.19E-03    0.81E-07
   0      9    10.129    16.290    0.12E-03    0.14E-03    0.64E-07
 Optimization of the real space projectors (new method)

 maximal supplied QI-value         = 24.76
 optimisation between [QCUT,QGAM] = [ 10.15, 20.30] = [ 28.85,115.39] Ry
 Optimized for a Real-space Cutoff    1.38 Angstroem

   l    n(q)    QCUT    max X(q) W(low)/X(q) W(high)/X(q)  e(spline)
   0      8    10.150    20.381    0.22E-03    0.32E-03    0.29E-06
   0      8    10.150    15.268    0.23E-03    0.35E-03    0.30E-06
   1      8    10.150     5.964    0.46E-03    0.53E-03    0.21E-06
   1      8    10.150     5.382    0.38E-03    0.45E-03    0.19E-06
  PAW_PBE Sr_sv 07Sep2000               :
 energy of atom  1       EATOM= -843.0319
 kinetic energy error for atom=    0.0032 (will be added to EATOM!!)
   PAW_PBE Ti_pv 07Sep2000              :
 energy of atom  2       EATOM=-1042.5995
 kinetic energy error for atom=    0.0037 (will be added to EATOM!!)
   PAW_PBE O 08Apr2002                  :
 energy of atom  3       EATOM= -432.3788
 kinetic energy error for atom=    0.1156 (will be added to EATOM!!)


 POSCAR: Sr Ti  O
  positions in cartesian coordinates
  No initial velocities read in
 exchange correlation table for  LEXCH =        8
   RHO(1)=    0.500       N(1)  =     2000
   RHO(2)=  100.500       N(2)  =     4000



--------------------------------------------------------------------------------------------------------


 ion  position               nearest neighbor table
   1  0.000  0.000  0.000- 111 2.78 106 2.78  88 2.78 109 2.78  55 2.78 100 2.79  73 2.79  57 2.79
                            75 2.79  82 2.79 117 2.79 115 2.79  48 3.41  28 3.41  30 3.41  46 3.41
   2  0.000  0.000  0.333-  83 2.78 116 2.79 101 2.79  56 2.79  73 2.79  74 2.79  89 2.79  55 2.79
                           110 2.79 115 2.79 109 2.79 107 2.79  29 3.41  35 3.41  28 3.41  46 3.41
   3  1.000  0.000  0.667- 102 2.78  74 2.78  56 2.78 117 2.79 110 2.79  84 2.79  75 2.79 108 2.79
                            57 2.79 111 2.79 116 2.79  90 2.79  47 3.41  29 3.41  48 3.41  53 3.41
   4  0.000  0.333  1.000-  85 2.78  60 2.78 103 2.78 111 2.79 114 2.79 109 2.79  78 2.79 112 2.79
                           100 2.79  58 2.79  76 2.79  82 2.79  33 3.41  48 3.41  51 3.41  31 3.41
   5  0.000  0.333  0.333- 112 2.78  59 2.78 113 2.78 110 2.79 101 2.79  76 2.79  58 2.79  77 2.79
                            86 2.79 109 2.79  83 2.79 104 2.79  32 3.41  31 3.41  29 3.41  47 3.41
   6  1.000  0.333  0.667-  78 2.78 102 2.78 114 2.78 105 2.78  84 2.79  87 2.79  60 2.79 110 2.79
                           111 2.79  77 2.79 113 2.79  59 2.79  51 3.41  33 3.41  48 3.41  47 3.41
   7  1.000  0.667  1.000-  81 2.78 103 2.78 114 2.78  79 2.79  85 2.79 115 2.79 106 2.79  61 2.79
                            63 2.79  88 2.79 112 2.79 117 2.79  51 3.41  33 3.41  49 3.41  52 3.41
   8  1.000  0.667  0.333- 115 2.78 116 2.78 107 2.79 112 2.79  80 2.79  89 2.79 113 2.79  86 2.79
                            79 2.79  62 2.79  61 2.79 104 2.79  52 3.41  53 3.41  34 3.41  35 3.41
   9  1.000  0.667  0.667- 105 2.78  62 2.78 117 2.79  80 2.79 114 2.79 108 2.79  63 2.79  81 2.79
                           116 2.79 113 2.79  90 2.79  87 2.79  51 3.41  50 3.41  53 3.41  33 3.41
  10  0.333  1.000  0.000-  64 2.78  82 2.78 124 2.78  55 2.78  97 2.79  91 2.79 126 2.79  88 2.79
                           118 2.79  57 2.79 120 2.79  66 2.79  43 3.41  34 3.41  28 3.41  37 3.41
  11  0.333  0.000  0.333-  83 2.78  92 2.78 119 2.78 118 2.79  98 2.79 125 2.79  89 2.79  56 2.79
                            64 2.79  65 2.79  55 2.79 124 2.79  38 3.41  29 3.41  28 3.41  35 3.41
  12  0.333  1.000  0.667-  65 2.78  56 2.78 120 2.78 125 2.79  90 2.79  57 2.79  66 2.79 119 2.79
                           126 2.79  99 2.79  84 2.79  93 2.79  35 3.41  36 3.41  44 3.41  30 3.41
  13  0.333  0.333  0.000-  82 2.78  94 2.78  58 2.78  85 2.78 121 2.79 118 2.79 123 2.79  60 2.79
                            69 2.79  91 2.79  67 2.79 120 2.79  31 3.41  40 3.41  28 3.41  42 3.41
  14  0.333  0.333  0.333-  67 2.78 118 2.78  68 2.79  58 2.79 119 2.79  59 2.79 122 2.79 121 2.79
                            92 2.79  86 2.79  95 2.79  83 2.79  40 3.41  38 3.41  37 3.41  41 3.41
  15  0.333  0.333  0.667-  87 2.78  69 2.78  96 2.79 120 2.79 122 2.79 123 2.79  84 2.79 119 2.79
                            60 2.79  93 2.79  59 2.79  68 2.79  42 3.41  33 3.41  30 3.41  29 3.41
  16  0.333  0.666  1.000- 123 2.78  72 2.78  61 2.79  85 2.79  63 2.79 124 2.79 121 2.79  94 2.79
                           126 2.79  97 2.79  70 2.79  88 2.79  42 3.41  33 3.41  31 3.41  40 3.41
  17  0.333  0.667  0.333-  71 2.78  86 2.78 121 2.79 122 2.79  95 2.79  89 2.79 125 2.79  98 2.79
                            70 2.79  61 2.79 124 2.79  62 2.79  41 3.41  31 3.41  32 3.41  44 3.41
  18  0.333  0.667  0.667-  62 2.78  63 2.79  90 2.79  99 2.79 123 2.79  96 2.79 122 2.79  87 2.79
                            71 2.79 125 2.79 126 2.79  72 2.79  33 3.41  32 3.41  41 3.41  35 3.41
  19  0.667  1.000  0.000- 133 2.78 106 2.79 127 2.79  64 2.79  97 2.79 135 2.79 100 2.79  73 2.79
                            91 2.79  75 2.79 129 2.79  66 2.79  43 3.41  52 3.41  37 3.41  54 3.41
  20  0.667  0.000  0.333- 127 2.78  73 2.78  92 2.78 107 2.79 101 2.79 133 2.79 128 2.79  98 2.79
                            74 2.79 134 2.79  64 2.79  65 2.79  46 3.41  52 3.41  37 3.41  53 3.41
  21  0.667  0.000  0.667-  65 2.78  75 2.79 128 2.79  74 2.79 108 2.79  66 2.79 102 2.79 134 2.79
                            93 2.79 135 2.79 129 2.79  99 2.79  47 3.41  38 3.41  53 3.41  54 3.41
  22  0.667  0.333  0.000- 130 2.78 103 2.79  94 2.79 129 2.79 132 2.79 100 2.79  76 2.79  78 2.79
                            91 2.79 127 2.79  67 2.79  69 2.79  49 3.41  48 3.41  40 3.41  51 3.41
  23  0.667  0.333  0.333-  68 2.78  67 2.78  95 2.78 128 2.79  77 2.79  92 2.79 104 2.79  76 2.79
                           127 2.79 130 2.79 101 2.79 131 2.79  38 3.41  41 3.41  47 3.41  40 3.41
  24  0.667  0.333  0.667-  93 2.78 132 2.78 131 2.78  77 2.79  78 2.79  96 2.79  68 2.79 129 2.79
                            69 2.79 128 2.79 105 2.79 102 2.79  42 3.41  41 3.41  51 3.41  50 3.41
  25  0.667  0.667  1.000-  79 2.78  81 2.79  72 2.79 130 2.79  70 2.79 132 2.79 133 2.79 135 2.79
                           103 2.79  97 2.79  94 2.79 106 2.79  51 3.41  49 3.41  40 3.41  42 3.41
  26  0.667  0.667  0.333- 104 2.78  95 2.78 107 2.79  70 2.79 134 2.79  71 2.79  79 2.79  80 2.79
                           131 2.79 130 2.79  98 2.79 133 2.79  49 3.41  41 3.41  50 3.41  40 3.41
  27  0.667  0.667  0.667- 131 2.78  99 2.78 134 2.79  96 2.79 132 2.79  72 2.79 135 2.79 105 2.79
                            80 2.79  71 2.79 108 2.79  81 2.79  41 3.41  51 3.41  50 3.41  45 3.41
  28  0.167  0.167  0.167- 109 1.97  55 1.97  82 1.97 118 1.97  83 1.97  58 1.97   1 3.41  10 3.41
                            13 3.41  11 3.41   2 3.41  14 3.41   4 3.41   5 3.41
  29  0.167  0.167  0.500- 110 1.97  59 1.97  84 1.97  56 1.97  83 1.97 119 1.97   3 3.41  11 3.41
                             2 3.41   5 3.41  12 3.41  15 3.41  14 3.41   6 3.41
  30  0.167  0.167  0.833- 120 1.97  57 1.97  84 1.97  82 1.97  60 1.97 111 1.97   1 3.41  15 3.41
                            10 3.41  12 3.41  13 3.41   4 3.41   6 3.41   3 3.41
  31  0.167  0.500  0.167-  86 1.97  61 1.97 112 1.97  85 1.97 121 1.97  58 1.97  13 3.41  17 3.41
                             5 3.41  16 3.41   8 3.41   4 3.41   7 3.41  14 3.41
  32  0.167  0.500  0.500-  86 1.97 113 1.97  59 1.97  62 1.97  87 1.97 122 1.97   5 3.41  18 3.41
                            17 3.41   9 3.41  15 3.41   8 3.41  14 3.41   6 3.41
  33  0.167  0.500  0.833- 114 1.97 123 1.97  87 1.97  60 1.97  63 1.97  85 1.97   4 3.41  16 3.41
                             6 3.41  18 3.41  15 3.41   7 3.41   9 3.41  13 3.41
  34  0.167  0.833  0.166-  61 1.97  88 1.97 124 1.97 115 1.97  55 1.97  89 1.97  10 3.41   1 3.41
                             8 3.41  16 3.41   7 3.41   2 3.41  17 3.42  11 3.42
  35  0.167  0.833  0.500-  90 1.97 125 1.97  56 1.97 116 1.97  62 1.97  89 1.97  12 3.41   2 3.41
                            18 3.41  11 3.41   8 3.41   9 3.41  17 3.41   3 3.41
  36  0.167  0.833  0.833-  57 1.97  90 1.97  88 1.97 117 1.97 126 1.97  63 1.97  12 3.41  10 3.41
                            18 3.41   1 3.41   9 3.41   3 3.41  16 3.41   7 3.42
  37  0.500  0.167  0.167-  64 1.97  91 1.97  67 1.97 127 1.97 118 1.97  92 1.97  19 3.41  10 3.41
                            20 3.41  14 3.41  23 3.41  11 3.41  22 3.41  13 3.41
  38  0.500  0.167  0.500-  93 1.97  65 1.97  92 1.97 119 1.97 128 1.97  68 1.97  23 3.41  11 3.41
                            21 3.41  14 3.41  12 3.41  24 3.41  20 3.41  15 3.41
  39  0.500  0.167  0.833-  66 1.97 129 1.97 120 1.97  93 1.97  91 1.97  69 1.97  24 3.41  21 3.41
                            15 3.41  12 3.41  10 3.41  19 3.41  22 3.41  13 3.42
  40  0.500  0.500  0.167-  94 1.97 121 1.97 130 1.97  70 1.97  95 1.97  67 1.97  13 3.41  26 3.41
                            22 3.41  25 3.41  14 3.41  17 3.41  16 3.41  23 3.41
  41  0.500  0.500  0.500-  71 1.97 131 1.97  96 1.97  95 1.97 122 1.97  68 1.97  27 3.41  23 3.41
                            17 3.41  26 3.41  24 3.41  18 3.41  14 3.41  15 3.41
  42  0.500  0.500  0.833-  69 1.97 123 1.97  94 1.97  72 1.97  96 1.97 132 1.97  16 3.41  15 3.41
                            24 3.41  13 3.41  25 3.41  22 3.41  27 3.41  18 3.41
  43  0.500  0.833  0.167-  64 1.97 124 1.97  97 1.97  98 1.97  70 1.97 133 1.97  10 3.41  19 3.41
                            17 3.41  20 3.41  25 3.41  26 3.41  16 3.41  11 3.42
  44  0.500  0.833  0.500-  65 1.97 134 1.97  71 1.97 125 1.97  98 1.97  99 1.97  12 3.41  17 3.41
                            27 3.41  11 3.41  26 3.41  21 3.41  20 3.41  18 3.41
  45  0.500  0.833  0.833-  97 1.97  99 1.97 126 1.97  72 1.97  66 1.97 135 1.97  27 3.41  12 3.41
                            16 3.41  18 3.41  10 3.41  25 3.41  19 3.41  21 3.42
  46  0.833  0.167  0.167-  76 1.97 101 1.97 100 1.97 109 1.97 127 1.97  73 1.97  20 3.41   1 3.41
                            22 3.41   5 3.41   2 3.41  19 3.41  23 3.41   4 3.41
  47  0.833  0.167  0.500- 128 1.97 110 1.97  77 1.97 102 1.97 101 1.97  74 1.97   3 3.41  21 3.41
                             6 3.41  23 3.41   5 3.41  24 3.41  20 3.41   2 3.41
  48  0.833  0.167  0.833- 100 1.97  75 1.97 129 1.97 111 1.97 102 1.97  78 1.97   1 3.41   6 3.41
                             3 3.41  22 3.41  21 3.41   4 3.41  19 3.41  24 3.41
  49  0.833  0.500  0.167- 130 1.97 104 1.97 103 1.97  76 1.97  79 1.97 112 1.97  22 3.41  26 3.41
                            25 3.41   7 3.41   5 3.41  23 3.41   4 3.41   8 3.41
  50  0.833  0.500  0.500- 131 1.97  77 1.97  80 1.97 104 1.97 105 1.97 113 1.97  26 3.41   9 3.41
                            27 3.41  24 3.41   5 3.41  23 3.41   6 3.41   8 3.41
  51  0.833  0.500  0.833- 105 1.97  81 1.97 132 1.97  78 1.97 114 1.97 103 1.97   7 3.41   6 3.41
                            25 3.41  24 3.41   9 3.41  27 3.41  22 3.41   4 3.41
  52  0.833  0.833  0.167- 115 1.97  73 1.97 107 1.97 106 1.97  79 1.97 133 1.97   8 3.41  19 3.41
                            20 3.41   7 3.41   1 3.41   2 3.41  25 3.41  26 3.41
  53  0.833  0.833  0.500- 108 1.97  80 1.97 134 1.97 107 1.97 116 1.97  74 1.97   8 3.41  21 3.41
                             9 3.41   3 3.41  20 3.41  26 3.41   2 3.41  27 3.41
  54  0.833  0.833  0.833-  75 1.97 106 1.97 117 1.97 135 1.97  81 1.97 108 1.97  19 3.41  21 3.41
                             3 3.41   1 3.41   7 3.41   9 3.41  25 3.41  27 3.42
  55  0.167  1.000  0.167-  28 1.97  34 1.97   1 2.78  10 2.78   2 2.79  11 2.79
  56  0.167  0.000  0.500-  35 1.97  29 1.97   3 2.78  12 2.78   2 2.79  11 2.79
  57  0.167  0.000  0.833-  36 1.97  30 1.97  12 2.79   3 2.79   1 2.79  10 2.79
  58  0.167  0.333  0.167-  28 1.97  31 1.97  13 2.78  14 2.79   5 2.79   4 2.79
  59  0.167  0.333  0.500-  29 1.97  32 1.97   5 2.78  14 2.79  15 2.79   6 2.79
  60  0.167  0.333  0.833-  30 1.97  33 1.97   4 2.78   6 2.79  15 2.79  13 2.79
  61  0.167  0.667  0.166-  34 1.97  31 1.97  16 2.79   7 2.79  17 2.79   8 2.79
  62  0.167  0.667  0.500-  32 1.97  35 1.97  18 2.78   9 2.78   8 2.79  17 2.79
  63  0.167  0.667  0.833-  33 1.97  36 1.97  18 2.79  16 2.79   9 2.79   7 2.79
  64  0.500  1.000  0.166-  43 1.97  37 1.97  10 2.78  19 2.79  11 2.79  20 2.79
  65  0.500  1.000  0.500-  44 1.97  38 1.97  21 2.78  12 2.78  11 2.79  20 2.79
  66  0.500  0.000  0.833-  39 1.97  45 1.97  12 2.79  21 2.79  10 2.79  19 2.79
  67  0.500  0.333  0.167-  37 1.97  40 1.97  14 2.78  23 2.78  13 2.79  22 2.79
  68  0.500  0.333  0.500-  41 1.97  38 1.97  23 2.78  14 2.79  24 2.79  15 2.79
  69  0.500  0.333  0.833-  42 1.97  39 1.97  15 2.78  24 2.79  13 2.79  22 2.79
  70  0.500  0.667  0.167-  40 1.97  43 1.97  25 2.79  26 2.79  17 2.79  16 2.79
  71  0.500  0.667  0.500-  41 1.97  44 1.97  17 2.78  18 2.79  26 2.79  27 2.79
  72  0.500  0.667  0.833-  42 1.97  45 1.97  16 2.78  25 2.79  27 2.79  18 2.79
  73  0.833  1.000  0.167-  52 1.97  46 1.97  20 2.78   2 2.79  19 2.79   1 2.79
  74  0.833  0.000  0.500-  53 1.97  47 1.97   3 2.78  21 2.79   2 2.79  20 2.79
  75  0.833  0.000  0.833-  54 1.97  48 1.97  21 2.79   3 2.79  19 2.79   1 2.79
  76  0.833  0.333  0.167-  46 1.97  49 1.97  22 2.79   5 2.79  23 2.79   4 2.79
  77  0.833  0.333  0.500-  50 1.97  47 1.97  24 2.79  23 2.79   5 2.79   6 2.79
  78  0.833  0.333  0.833-  48 1.97  51 1.97   6 2.78  24 2.79   4 2.79  22 2.79
  79  0.833  0.667  0.166-  52 1.97  49 1.97  25 2.78   7 2.79  26 2.79   8 2.79
  80  0.833  0.667  0.500-  53 1.97  50 1.97   9 2.79   8 2.79  26 2.79  27 2.79
  81  0.833  0.667  0.833-  51 1.97  54 1.97   7 2.78  25 2.79   9 2.79  27 2.79
  82  0.167  0.167  1.000-  28 1.97  30 1.97  13 2.78  10 2.78   1 2.79   4 2.79
  83  0.167  0.166  0.333-  28 1.97  29 1.97   2 2.78  11 2.78   5 2.79  14 2.79
  84  0.167  0.167  0.667-  29 1.97  30 1.97   6 2.79   3 2.79  15 2.79  12 2.79
  85  0.167  0.500  0.000-  31 1.97  33 1.97   4 2.78  13 2.78  16 2.79   7 2.79
  86  0.167  0.500  0.333-  31 1.97  32 1.97  17 2.78  14 2.79   8 2.79   5 2.79
  87  0.167  0.500  0.667-  32 1.97  33 1.97  15 2.78   6 2.79  18 2.79   9 2.79
  88  0.166  0.833  1.000-  34 1.97  36 1.97   1 2.78  10 2.79   7 2.79  16 2.79
  89  0.167  0.833  0.333-  34 1.97  35 1.97   8 2.79  17 2.79  11 2.79   2 2.79
  90  0.167  0.833  0.667-  36 1.97  35 1.97  12 2.79  18 2.79   9 2.79   3 2.79
  91  0.500  0.167  1.000-  37 1.97  39 1.97  10 2.79  19 2.79  22 2.79  13 2.79
  92  0.500  0.166  0.333-  38 1.97  37 1.97  11 2.78  20 2.78  23 2.79  14 2.79
  93  0.500  0.167  0.667-  38 1.97  39 1.97  24 2.78  15 2.79  21 2.79  12 2.79
  94  0.500  0.500  0.000-  40 1.97  42 1.97  13 2.78  22 2.79  16 2.79  25 2.79
  95  0.500  0.500  0.333-  41 1.97  40 1.97  26 2.78  23 2.78  17 2.79  14 2.79
  96  0.500  0.500  0.667-  41 1.97  42 1.97  15 2.79  24 2.79  27 2.79  18 2.79
  97  0.500  0.833  1.000-  45 1.97  43 1.97  19 2.79  10 2.79  25 2.79  16 2.79
  98  0.500  0.833  0.333-  44 1.97  43 1.97  11 2.79  17 2.79  20 2.79  26 2.79
  99  0.500  0.833  0.667-  45 1.97  44 1.97  27 2.78  18 2.79  12 2.79  21 2.79
 100  0.833  0.167  0.000-  48 1.97  46 1.97  22 2.79   1 2.79  19 2.79   4 2.79
 101  0.834  0.167  0.333-  46 1.97  47 1.97   2 2.79  20 2.79   5 2.79  23 2.79
 102  0.833  0.167  0.667-  47 1.97  48 1.97   3 2.78   6 2.78  21 2.79  24 2.79
 103  0.833  0.500  0.000-  49 1.97  51 1.97   7 2.78   4 2.78  22 2.79  25 2.79
 104  0.833  0.500  0.333-  49 1.97  50 1.97  26 2.78  23 2.79   8 2.79   5 2.79
 105  0.834  0.500  0.667-  51 1.97  50 1.97   9 2.78   6 2.78  27 2.79  24 2.79
 106  0.834  0.834  1.000-  54 1.97  52 1.97   1 2.78  19 2.79   7 2.79  25 2.79
 107  0.833  0.833  0.333-  52 1.97  53 1.97  20 2.79  26 2.79   8 2.79   2 2.79
 108  0.833  0.833  0.667-  53 1.97  54 1.97  21 2.79   9 2.79   3 2.79  27 2.79
 109  0.000  0.167  0.166-  28 1.97  46 1.97   1 2.78   4 2.79   5 2.79   2 2.79
 110  0.000  0.167  0.500-  29 1.97  47 1.97   5 2.79   6 2.79   3 2.79   2 2.79
 111  0.000  0.167  0.834-  48 1.97  30 1.97   1 2.78   4 2.79   6 2.79   3 2.79
 112  1.000  0.500  0.167-  31 1.97  49 1.97   5 2.78   8 2.79   4 2.79   7 2.79
 113  1.000  0.500  0.500-  32 1.97  50 1.97   5 2.78   8 2.79   9 2.79   6 2.79
 114  0.000  0.500  0.833-  33 1.97  51 1.97   6 2.78   7 2.78   4 2.79   9 2.79
 115  1.000  0.833  0.167-  52 1.97  34 1.97   8 2.78   7 2.79   2 2.79   1 2.79
 116  0.000  0.833  0.500-  35 1.97  53 1.97   8 2.78   2 2.79   9 2.79   3 2.79
 117  0.000  0.833  0.833-  54 1.97  36 1.97   9 2.79   3 2.79   1 2.79   7 2.79
 118  0.333  0.167  0.167-  28 1.97  37 1.97  14 2.78  11 2.79  13 2.79  10 2.79
 119  0.333  0.167  0.500-  38 1.97  29 1.97  11 2.78  14 2.79  12 2.79  15 2.79
 120  0.333  0.167  0.833-  30 1.97  39 1.97  12 2.78  15 2.79  10 2.79  13 2.79
 121  0.333  0.500  0.167-  40 1.97  31 1.97  17 2.79  13 2.79  16 2.79  14 2.79
 122  0.333  0.500  0.500-  41 1.97  32 1.97  17 2.79  15 2.79  14 2.79  18 2.79
 123  0.333  0.500  0.833-  42 1.97  33 1.97  16 2.78  18 2.79  15 2.79  13 2.79
 124  0.333  0.833  0.166-  43 1.97  34 1.97  10 2.78  16 2.79  17 2.79  11 2.79
 125  0.333  0.833  0.500-  35 1.97  44 1.97  12 2.79  11 2.79  17 2.79  18 2.79
 126  0.333  0.833  0.833-  45 1.97  36 1.97  16 2.79  10 2.79  12 2.79  18 2.79
 127  0.667  0.167  0.167-  37 1.97  46 1.97  20 2.78  19 2.79  23 2.79  22 2.79
 128  0.667  0.167  0.500-  47 1.97  38 1.97  23 2.79  21 2.79  20 2.79  24 2.79
 129  0.667  0.167  0.833-  39 1.97  48 1.97  22 2.79  24 2.79  19 2.79  21 2.79
 130  0.667  0.500  0.166-  49 1.97  40 1.97  22 2.78  25 2.79  26 2.79  23 2.79
 131  0.667  0.500  0.500-  50 1.97  41 1.97  27 2.78  24 2.78  26 2.79  23 2.79
 132  0.667  0.500  0.833-  51 1.97  42 1.97  24 2.78  22 2.79  25 2.79  27 2.79
 133  0.667  0.833  0.166-  52 1.97  43 1.97  19 2.78  20 2.79  25 2.79  26 2.79
 134  0.667  0.833  0.500-  44 1.97  53 1.97  27 2.79  26 2.79  21 2.79  20 2.79
 135  0.667  0.833  0.833-  54 1.97  45 1.97  19 2.79  25 2.79  21 2.79  27 2.79


IMPORTANT INFORMATION: All symmetrisations will be switched off!
NOSYMM: (Re-)initialisation of all symmetry stuff for point group C_1.


----------------------------------------------------------------------------------------

                                     Primitive cell

  volume of cell :    1652.6864

  direct lattice vectors                    reciprocal lattice vectors
    11.823066970  0.000000000  0.000000000     0.084580423  0.000000000  0.000000000
     0.000000000 11.823066970  0.000000000     0.000000000  0.084580423  0.000000000
     0.000000000  0.000000000 11.823066970     0.000000000  0.000000000  0.084580423

  length of vectors
    11.823066970 11.823066970 11.823066970     0.084580423  0.084580423  0.084580423

  position of ions in fractional coordinates (direct lattice)
     0.000036488  0.000112266  0.000008012
     0.000114657  0.000025519  0.333402709
     0.999884698  0.000173213  0.666557852
     0.000080237  0.333435698  0.999921434
     0.000032517  0.333389992  0.333370510
     0.999890873  0.333367098  0.666865611
     0.999862167  0.666506158  0.999932778
     0.999962836  0.666810592  0.333311482
     0.999946358  0.666637444  0.666636965
     0.333320027  0.999964671  0.000079476
     0.333302347  0.000174410  0.333475235
     0.333299439  0.999947515  0.666590313
     0.333238408  0.333420632  0.000145050
     0.333478017  0.333284696  0.333333543
     0.333297937  0.333403301  0.666701902
     0.333332486  0.666448759  0.999850158
     0.333406683  0.666581833  0.333373548
     0.333245481  0.666562861  0.666655289
     0.666686123  0.999897303  0.000105566
     0.666782671  0.000046240  0.333232584
     0.666775500  0.000069837  0.666581077
     0.666751430  0.333370859  0.000041658
     0.666507673  0.333279037  0.333464473
     0.666638933  0.333433874  0.666703189
     0.666684878  0.666571968  0.999944624
     0.666661475  0.666579691  0.333306645
     0.666554076  0.666594952  0.666646402
     0.166703106  0.166596939  0.166639718
     0.166614374  0.166710888  0.500060122
     0.166769284  0.166621879  0.833338950
     0.166669890  0.500066166  0.166764041
     0.166624983  0.499997910  0.499948518
     0.166613432  0.499987971  0.833304080
     0.166671690  0.833250393  0.166485150
     0.166696116  0.833354546  0.500032548
     0.166661740  0.833436593  0.833252106
     0.500043595  0.166600457  0.166608292
     0.500051749  0.166611830  0.500037142
     0.500010525  0.166629163  0.833314918
     0.500033409  0.499980503  0.166642440
     0.500048915  0.500062657  0.500039755
     0.499926032  0.499891152  0.833375815
     0.499954325  0.833376268  0.166573439
     0.500002650  0.833347016  0.499961213
     0.499946443  0.833287203  0.833284294
     0.833384579  0.166680506  0.166710514
     0.833372112  0.166757509  0.500059756
     0.833346839  0.166627458  0.833452397
     0.833213650  0.499961629  0.166703250
     0.833280586  0.500030614  0.500004476
     0.833297781  0.500061512  0.833299048
     0.833399661  0.833351274  0.166632492
     0.833311840  0.833317552  0.500003533
     0.833371541  0.833434056  0.833316548
     0.166633628  0.999950437  0.166502211
     0.166605828  0.000003657  0.500171400
     0.166699695  0.000006318  0.833195545
     0.166797800  0.333302815  0.166791372
     0.166646443  0.333324389  0.499791436
     0.166601136  0.333278579  0.833384574
     0.166753441  0.666664249  0.166474726
     0.166616408  0.666672406  0.500250814
     0.166682898  0.666703769  0.833228147
     0.499823434  0.999971317  0.166478826
     0.500061749  0.999958127  0.500251008
     0.500005780  0.000006789  0.833136187
     0.500046417  0.333254424  0.166914301
     0.500239855  0.333347801  0.499779712
     0.499823605  0.333305407  0.833300757
     0.500181029  0.666658449  0.166609457
     0.499846618  0.666692543  0.499877388
     0.499981371  0.666571337  0.833488938
     0.833401249  0.999980124  0.166809537
     0.833417320  0.000029477  0.500042524
     0.833250527  0.000024398  0.833243173
     0.833256319  0.333300899  0.166805825
     0.833179908  0.333416992  0.500031944
     0.833393497  0.333343361  0.833166411
     0.833229062  0.666659543  0.166482557
     0.833374866  0.666680934  0.499994856
     0.833366508  0.666728620  0.833489033
     0.167068169  0.166652152  0.999992464
     0.166626132  0.166378476  0.333336002
     0.166541543  0.166819029  0.666697746
     0.166629266  0.499910120  0.000040294
     0.166832320  0.500156966  0.333337188
     0.166729637  0.499748853  0.666625280
     0.166452452  0.833468097  0.999882620
     0.166785913  0.833323394  0.333254923
     0.166759706  0.833298857  0.666667874
     0.499978297  0.166610400  0.999968917
     0.500088999  0.166409444  0.333380404
     0.500172430  0.166892007  0.666662330
     0.499932660  0.499749100  0.000038071
     0.500285983  0.500145597  0.333357881
     0.499917375  0.499950173  0.666684567
     0.499970213  0.833360535  0.999890122
     0.499924231  0.833465376  0.333278208
     0.499961297  0.833082158  0.666659082
     0.833297464  0.166671475  0.000046288
     0.833501008  0.166616169  0.333349561
     0.833484005  0.166691675  0.666738045
     0.833416663  0.499870351  0.000047774
     0.832974274  0.500115447  0.333350557
     0.833513208  0.500086582  0.666680363
     0.833544866  0.833616082  0.999950677
     0.833162146  0.833255500  0.333298527
     0.833346695  0.833359726  0.666607567
     0.000063237  0.166729274  0.166457951
     0.000014080  0.166930721  0.500039608
     0.000050775  0.166617533  0.833592122
     0.999986178  0.499896711  0.166958313
     0.999990329  0.499934823  0.499868281
     0.000021569  0.500009654  0.833314660
     0.999987401  0.833126380  0.166728723
     0.000021271  0.833337682  0.499887682
     0.000006112  0.833410739  0.833003049
     0.333371996  0.166735379  0.166801766
     0.333371971  0.166700724  0.500026437
     0.333359963  0.166577315  0.833082431
     0.333420284  0.500038161  0.166723901
     0.333363929  0.499950179  0.499959189
     0.333284692  0.500033767  0.833362681
     0.333317122  0.833200450  0.166371672
     0.333333900  0.833346835  0.500005763
     0.333317452  0.833318316  0.833410966
     0.666701827  0.166504181  0.166716988
     0.666748962  0.166679000  0.500024682
     0.666649282  0.166773370  0.833432505
     0.666655030  0.499905961  0.166443623
     0.666685626  0.500153165  0.500304549
     0.666618641  0.499880342  0.833342985
     0.666681733  0.833472563  0.166438668
     0.666652590  0.833234516  0.500012495
     0.666684783  0.833372747  0.833334842

  ion indices of the primitive-cell ions
   primitive index   ion index
                 1           1
                 2           2
                 3           3
                 4           4
                 5           5
                 6           6
                 7           7
                 8           8
                 9           9
                10          10
                11          11
                12          12
                13          13
                14          14
                15          15
                16          16
                17          17
                18          18
                19          19
                20          20
                21          21
                22          22
                23          23
                24          24
                25          25
                26          26
                27          27
                28          28
                29          29
                30          30
                31          31
                32          32
                33          33
                34          34
                35          35
                36          36
                37          37
                38          38
                39          39
                40          40
                41          41
                42          42
                43          43
                44          44
                45          45
                46          46
                47          47
                48          48
                49          49
                50          50
                51          51
                52          52
                53          53
                54          54
                55          55
                56          56
                57          57
                58          58
                59          59
                60          60
                61          61
                62          62
                63          63
                64          64
                65          65
                66          66
                67          67
                68          68
                69          69
                70          70
                71          71
                72          72
                73          73
                74          74
                75          75
                76          76
                77          77
                78          78
                79          79
                80          80
                81          81
                82          82
                83          83
                84          84
                85          85
                86          86
                87          87
                88          88
                89          89
                90          90
                91          91
                92          92
                93          93
                94          94
                95          95
                96          96
                97          97
                98          98
                99          99
               100         100
               101         101
               102         102
               103         103
               104         104
               105         105
               106         106
               107         107
               108         108
               109         109
               110         110
               111         111
               112         112
               113         113
               114         114
               115         115
               116         116
               117         117
               118         118
               119         119
               120         120
               121         121
               122         122
               123         123
               124         124
               125         125
               126         126
               127         127
               128         128
               129         129
               130         130
               131         131
               132         132
               133         133
               134         134
               135         135

----------------------------------------------------------------------------------------



 KPOINTS: K-Points

Automatic generation of k-mesh.
 Grid dimensions read from file:
 generate k-points for:    2    2    2

 Generating k-lattice:

  Cartesian coordinates                     Fractional coordinates (reciprocal lattice)
     0.042290211  0.000000000  0.000000000     0.500000000  0.000000000  0.000000000
     0.000000000  0.042290211  0.000000000     0.000000000  0.500000000  0.000000000
     0.000000000  0.000000000  0.042290211     0.000000000  0.000000000  0.500000000

  Length of vectors
     0.042290211  0.042290211  0.042290211

  Shift w.r.t. Gamma in fractional coordinates (k-lattice)
     0.500000000  0.500000000  0.500000000


 Subroutine IBZKPT returns following result:
 ===========================================

 Found      4 irreducible k-points:

 Following reciprocal coordinates:
            Coordinates               Weight
  0.250000  0.250000  0.250000      2.000000
 -0.250000  0.250000  0.250000      2.000000
 -0.250000 -0.250000  0.250000      2.000000
  0.250000 -0.250000  0.250000      2.000000

 Following cartesian coordinates:
            Coordinates               Weight
  0.021145  0.021145  0.021145      2.000000
 -0.021145  0.021145  0.021145      2.000000
 -0.021145 -0.021145  0.021145      2.000000
  0.021145 -0.021145  0.021145      2.000000


 Subroutine IBZKPT_HF returns following result:
 ==============================================

 Found      8 k-points in 1st BZ
 the following      8 k-points will be used (e.g. in the exchange kernel)
 Following reciprocal coordinates:   # in IRBZ
  0.250000  0.250000  0.250000    0.12500000   1 t-inv F
 -0.250000  0.250000  0.250000    0.12500000   2 t-inv F
 -0.250000 -0.250000  0.250000    0.12500000   3 t-inv F
  0.250000 -0.250000  0.250000    0.12500000   4 t-inv F
 -0.250000 -0.250000 -0.250000    0.12500000   1 t-inv T
  0.250000 -0.250000 -0.250000    0.12500000   2 t-inv T
  0.250000  0.250000 -0.250000    0.12500000   3 t-inv T
 -0.250000  0.250000 -0.250000    0.12500000   4 t-inv T


--------------------------------------------------------------------------------------------------------




 Dimension of arrays:
   k-points           NKPTS =      4   k-points in BZ     NKDIM =      4   number of bands    NBANDS=    624
   number of dos      NEDOS =    301   number of ions     NIONS =    135
   non local maximal  LDIM  =      6   non local SUM 2l+1 LMDIM =     18
   total plane-waves  NPLWV = 216000
   max r-space proj   IRMAX =   2294   max aug-charges    IRDMAX=   7862
   dimension x,y,z NGX =    60 NGY =   60 NGZ =   60
   dimension x,y,z NGXF=   120 NGYF=  120 NGZF=  120
   support grid    NGXF=   120 NGYF=  120 NGZF=  120
   ions per type =              27  27  81
   NGX,Y,Z   is equivalent  to a cutoff of   8.44,  8.44,  8.44 a.u.
   NGXF,Y,Z  is equivalent  to a cutoff of  16.87, 16.87, 16.87 a.u.

 SYSTEM =  unknown system
 POSCAR =  Sr Ti  O

 Startparameter for this run:
   NWRITE =      2    write-flag & timer
   PREC   = normal    normal or accurate (medium, high low for compatibility)
   ISTART =      0    job   : 0-new  1-cont  2-samecut
   ICHARG =      2    charge: 1-file 2-atom 10-const
   ISPIN  =      1    spin polarized calculation?
   LNONCOLLINEAR =      F non collinear calculations
   LSORBIT =      F    spin-orbit coupling
   INIWAV =      1    electr: 0-lowe 1-rand  2-diag
   LASPH  =      F    aspherical Exc in radial PAW
 Electronic Relaxation 1
   ENCUT  =  400.0 eV  29.40 Ry    5.42 a.u.  19.28 19.28 19.28*2*pi/ulx,y,z
   ENINI  =  400.0     initial cutoff
   ENAUG  =  605.4 eV  augmentation charge cutoff
   NELM   =     80;   NELMIN=  4; NELMDL= -5     # of ELM steps
   EDIFF  = 0.1E-04   stopping-criterion for ELM
   LREAL  =      T    real-space projection
   NLSPLINE    = F    spline interpolate recip. space projectors
   LCOMPAT=      F    compatible to vasp.4.4
   GGA_COMPAT  = T    GGA compatible to vasp.4.4-vasp.4.6
   LMAXPAW     = -100 max onsite density
   LMAXMIX     =    2 max onsite mixed and CHGCAR
   VOSKOWN=      0    Vosko Wilk Nusair interpolation
   ROPT   =   -0.00050  -0.00050  -0.00050
 Ionic relaxation
   EDIFFG = 0.1E-03   stopping-criterion for IOM
   NSW    =      0    number of steps for IOM
   NBLOCK =      1;   KBLOCK =      1    inner block; outer block
   IBRION =     -1    ionic relax: 0-MD 1-quasi-New 2-CG
   NFREE  =      0    steps in history (QN), initial steepest desc. (CG)
   ISIF   =      2    stress and relaxation
   IWAVPR =     10    prediction:  0-non 1-charg 2-wave 3-comb
   ISYM   =      0    0-nonsym 1-usesym 2-fastsym
   LCORR  =      T    Harris-Foulkes like correction to forces

   POTIM  = 0.5000    time-step for ionic-motion
   TEIN   =    0.0    initial temperature
   TEBEG  =    0.0;   TEEND  =   0.0 temperature during run
   SMASS  =  -3.00    Nose mass-parameter (am)
   estimated Nose-frequenzy (Omega)   =  0.10E-29 period in steps = 0.13E+47 mass=  -0.319E-26a.u.
   SCALEE = 1.0000    scale energy and forces
   NPACO  =    256;   APACO  = 10.0  distance and # of slots for P.C.
   PSTRESS=    0.0 pullay stress

  Mass of Ions in am
   POMASS =  87.62 47.88 16.00
  Ionic Valenz
   ZVAL   =  10.00 10.00  6.00
  Atomic Wigner-Seitz radii
   RWIGS  =  -1.00 -1.00 -1.00
  virtual crystal weights
   VCA    =   1.00  1.00  1.00
   NELECT =    1026.0000    total number of electrons
   NUPDOWN=      -1.0000    fix difference up-down

 DOS related values:
   EMIN   =  10.00;   EMAX   =-10.00  energy-range for DOS
   EFERMI =   0.00
   ISMEAR =     0;   SIGMA  =   0.10  broadening in eV -4-tet -1-fermi 0-gaus

 Electronic relaxation 2 (details)
   IALGO  =     38    algorithm
   LDIAG  =      T    sub-space diagonalisation (order eigenvalues)
   LSUBROT=      F    optimize rotation matrix (better conditioning)
   TURBO    =      0    0=normal 1=particle mesh
   IRESTART =      0    0=no restart 2=restart with 2 vectors
   NREBOOT  =      0    no. of reboots
   NMIN     =      0    reboot dimension
   EREF     =   0.00    reference energy to select bands
   IMIX   =      4    mixing-type and parameters
     AMIX     =   0.40;   BMIX     =  1.00
     AMIX_MAG =   1.60;   BMIX_MAG =  1.00
     AMIN     =   0.10
     WC   =   100.;   INIMIX=   1;  MIXPRE=   1;  MAXMIX= -45

 Intra band minimization:
   WEIMIN = 0.0000     energy-eigenvalue tresh-hold
   EBREAK =  0.40E-08  absolut break condition
   DEPER  =   0.30     relativ break condition

   TIME   =   0.40     timestep for ELM

  volume/ion in A,a.u.               =      12.24        82.61
  Fermi-wavevector in a.u.,A,eV,Ry     =   1.396563  2.639121 26.536635  1.950388
  Thomas-Fermi vector in A             =   2.519905

 Write flags
   LWAVE        =      F    write WAVECAR
   LDOWNSAMPLE  =      F    k-point downsampling of WAVECAR
   LCHARG       =      F    write CHGCAR
   LVTOT        =      F    write LOCPOT, total local potential
   LVHAR        =      F    write LOCPOT, Hartree potential only
   LELF         =      F    write electronic localiz. function (ELF)
   LORBIT       =      0    0 simple, 1 ext, 2 COOP (PROOUT), +10 PAW based schemes


 Dipole corrections
   LMONO  =      F    monopole corrections only (constant potential shift)
   LDIPOL =      F    correct potential (dipole corrections)
   IDIPOL =      0    1-x, 2-y, 3-z, 4-all directions
   EPSILON=  1.0000000 bulk dielectric constant

 LDA+U is selected, type is set to LDAUTYPE =  2
   angular momentum for each species LDAUL =    -1    2   -1
   U (eV)           for each species LDAUU =   0.0  3.0  0.0
   J (eV)           for each species LDAUJ =   0.0  0.0  0.0
 Exchange correlation treatment:
   GGA     =    --    GGA type
   LEXCH   =     8    internal setting for exchange type
   LIBXC   =     F    Libxc
   VOSKOWN =     0    Vosko Wilk Nusair interpolation
   LHFCALC =     F    Hartree Fock is set to
   LHFONE  =     F    Hartree Fock one center treatment
   AEXX    =    0.0000 exact exchange contribution

 Linear response parameters
   LEPSILON=     T    determine dielectric tensor
   LRPA    =     F    only Hartree local field effects (RPA)
   LNABLA  =     F    use nabla operator in PAW spheres
   LVEL    =     F    velocity operator in full k-point grid
   CSHIFT  =0.1000    complex shift for real part using Kramers Kronig
   OMEGAMAX=  -1.0    maximum frequency
   DEG_THRESHOLD= 0.2000000E-02 threshold for treating states as degnerate
   RTIME   =   -0.100 relaxation time in fs
  (WPLASMAI=    0.000 imaginary part of plasma frequency in eV, 0.658/RTIME)
   DFIELD  = 0.0000000 0.0000000 0.0000000 field for delta impulse in time

  Optional k-point grid parameters
   LKPOINTS_OPT  =     F    use optional k-point grid
   KPOINTS_OPT_MODE=     1    mode for optional k-point grid

 Orbital magnetization related:
   ORBITALMAG=     F  switch on orbital magnetization
   LCHIMAG   =     F  perturbation theory with respect to B field
   DQ        =  0.001000  dq finite difference perturbation B field
   LLRAUG    =     F  two centre corrections for induced B field

 PEAD related settings:
   LPEAD      =     T    switch on PEAD
   IPEAD      =     4    finite difference order for dpsi/dk
   LCALCPOL   =     F    calculate macroscopic polarization
   LCALCEPS   =     F    calculate dielectric tensor
   EFIELD_PEAD=    0.0000    0.0000    0.0000
   SKIP_EDOTP =     F
   LRPA       =     F
   SKIP_SCF   =     F


--------------------------------------------------------------------------------------------------------


 Static calculation
 charge density and potential will be updated during run
 non-spin polarized calculation
 Variant of blocked Davidson
 Davidson routine will perform the subspace rotation
 perform sub-space diagonalisation
    after iterative eigenvector-optimisation
 modified Broyden-mixing scheme, WC =      100.0
 initial mixing is a Kerker type mixing with AMIX =  0.4000 and BMIX =      1.0000
 Hartree-type preconditioning will be used
 using additional bands          111
 real space projection scheme for non local part
 use partial core corrections
 calculate Harris-corrections to forces   (improved forces if not selfconsistent)
 use gradient corrections
 use of overlap-Matrix (Vanderbilt PP)
 Gauss-broadening in eV      SIGMA  =   0.10


--------------------------------------------------------------------------------------------------------


  energy-cutoff  :      400.00
  volume of cell :     1652.69
      direct lattice vectors                 reciprocal lattice vectors
    11.823066970  0.000000000  0.000000000     0.084580423  0.000000000  0.000000000
     0.000000000 11.823066970  0.000000000     0.000000000  0.084580423  0.000000000
     0.000000000  0.000000000 11.823066970     0.000000000  0.000000000  0.084580423

  length of vectors
    11.823066970 11.823066970 11.823066970     0.084580423  0.084580423  0.084580423



 k-points in units of 2pi/SCALE and weight: K-Points
   0.02114511  0.02114511  0.02114511       0.250
  -0.02114511  0.02114511  0.02114511       0.250
  -0.02114511 -0.02114511  0.02114511       0.250
   0.02114511 -0.02114511  0.02114511       0.250

 k-points in reciprocal lattice and weights: K-Points
   0.25000000  0.25000000  0.25000000       0.250
  -0.25000000  0.25000000  0.25000000       0.250
  -0.25000000 -0.25000000  0.25000000       0.250
   0.25000000 -0.25000000  0.25000000       0.250

 position of ions in fractional coordinates (direct lattice)
   0.00003649  0.00011227  0.00000801
   0.00011466  0.00002552  0.33340271
   0.99988470  0.00017321  0.66655785
   0.00008024  0.33343570  0.99992143
   0.00003252  0.33338999  0.33337051
   0.99989087  0.33336710  0.66686561
   0.99986217  0.66650616  0.99993278
   0.99996284  0.66681059  0.33331148
   0.99994636  0.66663744  0.66663696
   0.33332003  0.99996467  0.00007948
   0.33330235  0.00017441  0.33347523
   0.33329944  0.99994751  0.66659031
   0.33323841  0.33342063  0.00014505
   0.33347802  0.33328470  0.33333354
   0.33329794  0.33340330  0.66670190
   0.33333249  0.66644876  0.99985016
   0.33340668  0.66658183  0.33337355
   0.33324548  0.66656286  0.66665529
   0.66668612  0.99989730  0.00010557
   0.66678267  0.00004624  0.33323258
   0.66677550  0.00006984  0.66658108
   0.66675143  0.33337086  0.00004166
   0.66650767  0.33327904  0.33346447
   0.66663893  0.33343387  0.66670319
   0.66668488  0.66657197  0.99994462
   0.66666148  0.66657969  0.33330665
   0.66655408  0.66659495  0.66664640
   0.16670311  0.16659694  0.16663972
   0.16661437  0.16671089  0.50006012
   0.16676928  0.16662188  0.83333895
   0.16666989  0.50006617  0.16676404
   0.16662498  0.49999791  0.49994852
   0.16661343  0.49998797  0.83330408
   0.16667169  0.83325039  0.16648515
   0.16669612  0.83335455  0.50003255
   0.16666174  0.83343659  0.83325211
   0.50004360  0.16660046  0.16660829
   0.50005175  0.16661183  0.50003714
   0.50001052  0.16662916  0.83331492
   0.50003341  0.49998050  0.16664244
   0.50004891  0.50006266  0.50003975
   0.49992603  0.49989115  0.83337582
   0.49995432  0.83337627  0.16657344
   0.50000265  0.83334702  0.49996121
   0.49994644  0.83328720  0.83328429
   0.83338458  0.16668051  0.16671051
   0.83337211  0.16675751  0.50005976
   0.83334684  0.16662746  0.83345240
   0.83321365  0.49996163  0.16670325
   0.83328059  0.50003061  0.50000448
   0.83329778  0.50006151  0.83329905
   0.83339966  0.83335127  0.16663249
   0.83331184  0.83331755  0.50000353
   0.83337154  0.83343406  0.83331655
   0.16663363  0.99995044  0.16650221
   0.16660583  0.00000366  0.50017140
   0.16669970  0.00000632  0.83319555
   0.16679780  0.33330282  0.16679137
   0.16664644  0.33332439  0.49979144
   0.16660114  0.33327858  0.83338457
   0.16675344  0.66666425  0.16647473
   0.16661641  0.66667241  0.50025081
   0.16668290  0.66670377  0.83322815
   0.49982343  0.99997132  0.16647883
   0.50006175  0.99995813  0.50025101
   0.50000578  0.00000679  0.83313619
   0.50004642  0.33325442  0.16691430
   0.50023985  0.33334780  0.49977971
   0.49982360  0.33330541  0.83330076
   0.50018103  0.66665845  0.16660946
   0.49984662  0.66669254  0.49987739
   0.49998137  0.66657134  0.83348894
   0.83340125  0.99998012  0.16680954
   0.83341732  0.00002948  0.50004252
   0.83325053  0.00002440  0.83324317
   0.83325632  0.33330090  0.16680583
   0.83317991  0.33341699  0.50003194
   0.83339350  0.33334336  0.83316641
   0.83322906  0.66665954  0.16648256
   0.83337487  0.66668093  0.49999486
   0.83336651  0.66672862  0.83348903
   0.16706817  0.16665215  0.99999246
   0.16662613  0.16637848  0.33333600
   0.16654154  0.16681903  0.66669775
   0.16662927  0.49991012  0.00004029
   0.16683232  0.50015697  0.33333719
   0.16672964  0.49974885  0.66662528
   0.16645245  0.83346810  0.99988262
   0.16678591  0.83332339  0.33325492
   0.16675971  0.83329886  0.66666787
   0.49997830  0.16661040  0.99996892
   0.50008900  0.16640944  0.33338040
   0.50017243  0.16689201  0.66666233
   0.49993266  0.49974910  0.00003807
   0.50028598  0.50014560  0.33335788
   0.49991738  0.49995017  0.66668457
   0.49997021  0.83336053  0.99989012
   0.49992423  0.83346538  0.33327821
   0.49996130  0.83308216  0.66665908
   0.83329746  0.16667147  0.00004629
   0.83350101  0.16661617  0.33334956
   0.83348400  0.16669168  0.66673804
   0.83341666  0.49987035  0.00004777
   0.83297427  0.50011545  0.33335056
   0.83351321  0.50008658  0.66668036
   0.83354487  0.83361608  0.99995068
   0.83316215  0.83325550  0.33329853
   0.83334669  0.83335973  0.66660757
   0.00006324  0.16672927  0.16645795
   0.00001408  0.16693072  0.50003961
   0.00005077  0.16661753  0.83359212
   0.99998618  0.49989671  0.16695831
   0.99999033  0.49993482  0.49986828
   0.00002157  0.50000965  0.83331466
   0.99998740  0.83312638  0.16672872
   0.00002127  0.83333768  0.49988768
   0.00000611  0.83341074  0.83300305
   0.33337200  0.16673538  0.16680177
   0.33337197  0.16670072  0.50002644
   0.33335996  0.16657731  0.83308243
   0.33342028  0.50003816  0.16672390
   0.33336393  0.49995018  0.49995919
   0.33328469  0.50003377  0.83336268
   0.33331712  0.83320045  0.16637167
   0.33333390  0.83334683  0.50000576
   0.33331745  0.83331832  0.83341097
   0.66670183  0.16650418  0.16671699
   0.66674896  0.16667900  0.50002468
   0.66664928  0.16677337  0.83343250
   0.66665503  0.49990596  0.16644362
   0.66668563  0.50015317  0.50030455
   0.66661864  0.49988034  0.83334298
   0.66668173  0.83347256  0.16643867
   0.66665259  0.83323452  0.50001250
   0.66668478  0.83337275  0.83333484

 position of ions in cartesian coordinates  (Angst):
   0.00043140  0.00132733  0.00009473
   0.00135560  0.00030171  3.94184255
  11.82170374  0.00204791  7.88075812
   0.00094864  3.94223258 11.82213808
   0.00038445  3.94169220  3.94146186
  11.82177676  3.94142152  7.88439678
  11.82143736  7.88014694 11.82227219
  11.82262758  7.88374629  3.94076397
  11.82243276  7.88169914  7.88169348
   3.94086500 11.82264927  0.00093965
   3.94065597  0.00206207  3.94270004
   3.94062158 11.82244643  7.88114191
   3.93990002  3.94205446  0.00171494
   3.94273293  3.94044728  3.94102480
   3.94060383  3.94184956  7.88246123
   3.94101231  7.87946831 11.82129538
   3.94188954  7.88104165  3.94149778
   3.93998364  7.88081734  7.88191013
   7.88227468 11.82185278  0.00124812
   7.88341617  0.00054670  3.93983116
   7.88333140  0.00082569  7.88103271
   7.88304680  3.94146599  0.00049253
   7.88016485  3.94038038  3.94257280
   7.88171675  3.94221102  7.88247646
   7.88225996  7.88092502 11.82241226
   7.88198327  7.88101633  3.94070679
   7.88071347  7.88119676  7.88180505
   1.97094199  1.96968677  1.97019255
   1.96989291  1.97103399  5.91224431
   1.97172441  1.96998164  9.85262221
   1.97054927  5.91231576  1.97166243
   1.97001834  5.91150878  5.91092481
   1.96988176  5.91139127  9.85220994
   1.97057055  9.85157520  1.96836508
   1.97085935  9.85280661  5.91191830
   1.97045292  9.85377665  9.85159545
   5.91204892  1.96972836  1.96982100
   5.91214531  1.96986283  5.91197262
   5.91165792  1.97006776  9.85233808
   5.91192848  5.91130297  1.97022473
   5.91211181  5.91227428  5.91200351
   5.91065895  5.91024656  9.85305808
   5.91099346  9.85306343  1.96940893
   5.91156482  9.85271758  5.91107490
   5.91090027  9.85201041  9.85197601
   9.85316169  1.97067479  1.97102957
   9.85301429  1.97158519  5.91223998
   9.85271549  1.97004759  9.85396351
   9.85114079  5.91107982  1.97094369
   9.85193217  5.91189543  5.91158641
   9.85213547  5.91226075  9.85215045
   9.85334001  9.85276792  1.97010711
   9.85230170  9.85236923  5.91157525
   9.85300754  9.85374666  9.85235735
   1.97012054 11.82248099  1.96856679
   1.96979186  0.00004323  5.91355995
   1.97090166  0.00007469  9.85092673
   1.97206156  3.94066150  1.97198557
   1.97027206  3.94091658  5.90906762
   1.96973639  3.94037496  9.85316163
   1.97153710  7.88201606  1.96824184
   1.96991695  7.88211251  5.91449888
   1.97070307  7.88248331  9.85131219
   5.90944593 11.82272785  1.96829031
   5.91226355 11.82257191  5.91450117
   5.91160183  0.00008026  9.85022494
   5.91208228  3.94008937  1.97343896
   5.91436930  3.94119337  5.90892900
   5.90944795  3.94069215  9.85217065
   5.91367380  7.88194749  1.96983477
   5.90972004  7.88235059  5.91008384
   5.91131323  7.88091756  9.85439553
   9.85335878 11.82283198  1.97220033
   9.85354878  0.00034850  5.91203625
   9.85157679  0.00028846  9.85148983
   9.85164526  3.94063885  1.97215644
   9.85074185  3.94201143  5.91191117
   9.85326712  3.94114088  9.85058228
   9.85132300  7.88196043  1.96833442
   9.85304685  7.88221333  5.91147267
   9.85294804  7.88277713  9.85439666
   1.97525816  1.97033956 11.82297788
   1.97003192  1.96710386  3.94105387
   1.96903182  1.97231256  7.88241210
   1.97006897  5.91047083  0.00047640
   1.97246969  5.91338930  3.94106789
   1.97125566  5.90856415  7.88155533
   1.96797849  9.85414913 11.82167918
   1.97192102  9.85243829  3.94009527
   1.97161117  9.85214819  7.88205892
   5.91127689  1.96984592 11.82269947
   5.91258573  1.96747001  3.94157884
   5.91357214  1.97317538  7.88199337
   5.91073732  5.90856708  0.00045011
   5.91491468  5.91325489  3.94131255
   5.91055661  5.91094438  7.88225628
   5.91118131  9.85287741 11.82176787
   5.91063766  9.85411696  3.94037057
   5.91107590  9.84958615  7.88195497
   9.85213172  1.97056801  0.00054727
   9.85453824  1.96991412  3.94121418
   9.85433721  1.97080684  7.88288855
   9.85354102  5.91000063  0.00056483
   9.84831063  5.91289842  3.94122596
   9.85468248  5.91255715  7.88220658
   9.85505677  9.85589877 11.82248382
   9.85053184  9.85163558  3.94061081
   9.85271378  9.85286785  7.88134591
   0.00074766  1.97125137  1.96804350
   0.00016647  1.97363309  5.91200177
   0.00060031  1.96993025  9.85561549
  11.82290355  5.91031229  1.97395932
  11.82295263  5.91076289  5.90997616
   0.00025502  5.91164763  9.85233503
  11.82291801  9.85010898  1.97124486
   0.00025149  9.85260722  5.91020554
   0.00007226  9.85347098  9.84865083
   3.94147944  1.97132356  1.97210845
   3.94147914  1.97091383  5.91184605
   3.94133717  1.96945475  9.84958937
   3.94205035  5.91198467  1.97118784
   3.94138405  5.91094445  5.91105097
   3.94044723  5.91193271  9.85290279
   3.94083066  9.85098472  1.96702342
   3.94102902  9.85271544  5.91160163
   3.94083456  9.85237826  9.85347367
   7.88246035  1.96859009  1.97110611
   7.88301763  1.97065698  5.91182530
   7.88183911  1.97177272  9.85372832
   7.88190707  5.91042165  1.96787411
   7.88226881  5.91334437  5.91513419
   7.88147684  5.91011876  9.85266992
   7.88222277  9.85420193  1.96781552
   7.88187822  9.85138749  5.91168122
   7.88225883  9.85302179  9.85257364



--------------------------------------------------------------------------------------------------------


 k-point   1 :   0.2500 0.2500 0.2500  plane waves:   30052
 k-point   2 :  -0.2500 0.2500 0.2500  plane waves:   30052
 k-point   3 :  -0.2500-0.2500 0.2500  plane waves:   30052
 k-point   4 :   0.2500-0.2500 0.2500  plane waves:   30052

 maximum and minimum number of plane-waves per node :     30052    30052

 maximum number of plane-waves:     30052
 maximum index in each direction:
   IXMAX=   19   IYMAX=   19   IZMAX=   19
   IXMIN=  -19   IYMIN=  -19   IZMIN=  -19


 serial   3D FFT for wavefunctions
 parallel 3D FFT for charge:
    minimum data exchange during FFTs selected (reduces bandwidth)


 total amount of memory used by VASP MPI-rank0   161795. kBytes
=======================================================================

   base      :      30000. kBytes
   nonlr-proj:      29670. kBytes
   fftplans  :       4751. kBytes
   grid      :      16162. kBytes
   one-center:       2099. kBytes
   wavefun   :      79113. kBytes

     INWAV:  cpu time      0.0000: real time      0.0004
 Broyden mixing: mesh for mixing (old mesh)
   NGX = 39   NGY = 39   NGZ = 39
  (NGX  =120   NGY  =120   NGZ  =120)
  gives a total of  59319 points

 initial charge density was supplied:
 charge density of overlapping atoms calculated
 number of electron    1026.0000000 magnetization
 keeping initial charge density in first step


--------------------------------------------------------------------------------------------------------


 Maximum index for non-local projection operator         2109
 Maximum index for augmentation-charges          726 (set IRDMAX)


--------------------------------------------------------------------------------------------------------


 First call to EWALD:  gamma=   0.150
 Maximum number of real-space cells 3x 3x 3
 Maximum number of reciprocal cells 3x 3x 3

    FEWALD:  cpu time      0.1249: real time      0.1253


--------------------------------------- Iteration      1(   1)  ---------------------------------------


    POTLOK:  cpu time      0.0928: real time      0.0951
    SETDIJ:  cpu time      0.0121: real time      0.0122
     EDDAV:  cpu time      7.9567: real time      8.0337
       DOS:  cpu time      0.0015: real time      0.0023
    --------------------------------------------
      LOOP:  cpu time      8.0631: real time      8.1433

 eigenvalue-minimisations  :  4992
 total energy-change (2. order) : 0.1184642E+05  (-0.4341325E+05)
 number of electron    1026.0000000 magnetization
 augmentation part     1026.0000000 magnetization

 Free energy of the ion-electron system (eV)
  ---------------------------------------------------
  alpha Z        PSCENC =      6134.83985869
  Ewald energy   TEWEN  =    -69271.42348338
  -Hartree energ DENC   =    -18066.88674307
  -exchange      EXHF   =         0.00000000
  -V(xc)+E(xc)   XCENC  =      4195.28127297
  PAW double counting   =     67221.85285535   -66951.63319625
  entropy T*S    EENTRO =        -0.20124990
  eigenvalues    EBANDS =      2659.40718888
  atomic energy  EATOM  =     85925.18186677
  Solvation  Ediel_sol  =         0.00000000
  ---------------------------------------------------
  free energy    TOTEN  =     11846.41837005 eV

  energy without entropy =    11846.61961996  energy(sigma->0) =    11846.51899501


--------------------------------------------------------------------------------------------------------




--------------------------------------- Iteration      1(   2)  ---------------------------------------


     EDDAV:  cpu time      7.9424: real time      8.0150
       DOS:  cpu time      0.0010: real time      0.0011
    --------------------------------------------
      LOOP:  cpu time      7.9434: real time      8.0161

 eigenvalue-minimisations  :  4992
 total energy-change (2. order) :-0.1085261E+05  (-0.1034646E+05)
 number of electron    1026.0000000 magnetization
 augmentation part     1026.0000000 magnetization

 Free energy of the ion-electron system (eV)
  ---------------------------------------------------
  alpha Z        PSCENC =      6134.83985869
  Ewald energy   TEWEN  =    -69271.42348338
  -Hartree energ DENC   =    -18066.88674307
  -exchange      EXHF   =         0.00000000
  -V(xc)+E(xc)   XCENC  =      4195.28127297
  PAW double counting   =     67221.85285535   -66951.63319625
  entropy T*S    EENTRO =        -0.20875991
  eigenvalues    EBANDS =     -8193.19873934
  atomic energy  EATOM  =     85925.18186677
  Solvation  Ediel_sol  =         0.00000000
  ---------------------------------------------------
  free energy    TOTEN  =       993.80493183 eV

  energy without entropy =      994.01369174  energy(sigma->0) =      993.90931178


--------------------------------------------------------------------------------------------------------




--------------------------------------- Iteration      1(   3)  ---------------------------------------


     EDDAV:  cpu time      9.1709: real time      9.2511
       DOS:  cpu time      0.0008: real time      0.0010
    --------------------------------------------
      LOOP:  cpu time      9.1717: real time      9.2521

 eigenvalue-minimisations  :  5920
 total energy-change (2. order) :-0.2172858E+04  (-0.2111143E+04)
 number of electron    1026.0000000 magnetization
 augmentation part     1026.0000000 magnetization

 Free energy of the ion-electron system (eV)
  ---------------------------------------------------
  alpha Z        PSCENC =      6134.83985869
  Ewald energy   TEWEN  =    -69271.42348338
  -Hartree energ DENC   =    -18066.88674307
  -exchange      EXHF   =         0.00000000
  -V(xc)+E(xc)   XCENC  =      4195.28127297
  PAW double counting   =     67221.85285535   -66951.63319625
  entropy T*S    EENTRO =        -0.00000000
  eigenvalues    EBANDS =    -10366.26506638
  atomic energy  EATOM  =     85925.18186677
  Solvation  Ediel_sol  =         0.00000000
  ---------------------------------------------------
  free energy    TOTEN  =     -1179.05263530 eV

  energy without entropy =    -1179.05263530  energy(sigma->0) =    -1179.05263530


--------------------------------------------------------------------------------------------------------




--------------------------------------- Iteration      1(   4)  ---------------------------------------


     EDDAV:  cpu time     10.7336: real time     10.8266
       DOS:  cpu time      0.0010: real time      0.0011
    --------------------------------------------
      LOOP:  cpu time     10.7346: real time     10.8277

 eigenvalue-minimisations  :  7248
 total energy-change (2. order) :-0.1372092E+03  (-0.1365675E+03)
 number of electron    1026.0000000 magnetization
 augmentation part     1026.0000000 magnetization

 Free energy of the ion-electron system (eV)
  ---------------------------------------------------
  alpha Z        PSCENC =      6134.83985869
  Ewald energy   TEWEN  =    -69271.42348338
  -Hartree energ DENC   =    -18066.88674307
  -exchange      EXHF   =         0.00000000
  -V(xc)+E(xc)   XCENC  =      4195.28127297
  PAW double counting   =     67221.85285535   -66951.63319625
  entropy T*S    EENTRO =        -0.00000000
  eigenvalues    EBANDS =    -10503.47429876
  atomic energy  EATOM  =     85925.18186677
  Solvation  Ediel_sol  =         0.00000000
  ---------------------------------------------------
  free energy    TOTEN  =     -1316.26186768 eV

  energy without entropy =    -1316.26186768  energy(sigma->0) =    -1316.26186768


--------------------------------------------------------------------------------------------------------




--------------------------------------- Iteration      1(   5)  ---------------------------------------


     EDDAV:  cpu time     13.2673: real time     13.3874
       DOS:  cpu time      0.0008: real time      0.0011
    CHARGE:  cpu time      0.1200: real time      0.1211
    MIXING:  cpu time      0.0039: real time      0.0040
    --------------------------------------------
      LOOP:  cpu time     13.3921: real time     13.5135

 eigenvalue-minimisations  :  9328
 total energy-change (2. order) :-0.5324435E+01  (-0.5317046E+01)
 number of electron    1026.0007875 magnetization
 augmentation part      189.8407144 magnetization

 Broyden mixing:
  rms(total) = 0.15577E+02    rms(broyden)= 0.15575E+02
  rms(prec ) = 0.17443E+02
  weight for this iteration     100.00

 Free energy of the ion-electron system (eV)
  ---------------------------------------------------
  alpha Z        PSCENC =      6134.83985869
  Ewald energy   TEWEN  =    -69271.42348338
  -Hartree energ DENC   =    -18066.88674307
  -exchange      EXHF   =         0.00000000
  -V(xc)+E(xc)   XCENC  =      4195.28127297
  PAW double counting   =     67221.85285535   -66951.63319625
  entropy T*S    EENTRO =        -0.00000000
  eigenvalues    EBANDS =    -10508.79873414
  atomic energy  EATOM  =     85925.18186677
  Solvation  Ediel_sol  =         0.00000000
  ---------------------------------------------------
  free energy    TOTEN  =     -1321.58630306 eV

  energy without entropy =    -1321.58630306  energy(sigma->0) =    -1321.58630306


--------------------------------------------------------------------------------------------------------




--------------------------------------- Iteration      1(   6)  ---------------------------------------


    POTLOK:  cpu time      0.0829: real time      0.0836
    SETDIJ:  cpu time      0.0119: real time      0.0120
     EDDAV:  cpu time     10.0883: real time     10.1812
       DOS:  cpu time      0.0009: real time      0.0011
    CHARGE:  cpu time      0.1184: real time      0.1194
    MIXING:  cpu time      0.0040: real time      0.0043
    --------------------------------------------
      LOOP:  cpu time     10.3064: real time     10.4015

 eigenvalue-minimisations  :  6768
 total energy-change (2. order) : 0.3072159E+03  (-0.1583866E+03)
 number of electron    1026.0005148 magnetization
 augmentation part      192.9140716 magnetization

 Broyden mixing:
  rms(total) = 0.78158E+01    rms(broyden)= 0.78125E+01
  rms(prec ) = 0.79565E+01
  weight for this iteration     100.00

 eigenvalues of (default mixing * dielectric matrix)
  average eigenvalue GAMMA=   0.9609
  0.9609

 Free energy of the ion-electron system (eV)
  ---------------------------------------------------
  alpha Z        PSCENC =      6134.83985869
  Ewald energy   TEWEN  =    -69271.42348338
  -Hartree energ DENC   =    -18477.17864253
  -exchange      EXHF   =         0.00000000
  -V(xc)+E(xc)   XCENC  =      4255.98119539
  PAW double counting   =     84379.17234516   -84296.45315299
  entropy T*S    EENTRO =        -0.00000000
  eigenvalues    EBANDS =     -9664.49037396
  atomic energy  EATOM  =     85925.18186677
  Solvation  Ediel_sol  =         0.00000000
  ---------------------------------------------------
  free energy    TOTEN  =     -1014.37038684 eV

  energy without entropy =    -1014.37038684  energy(sigma->0) =    -1014.37038684


--------------------------------------------------------------------------------------------------------




--------------------------------------- Iteration      1(   7)  ---------------------------------------


    POTLOK:  cpu time      0.0869: real time      0.0876
    SETDIJ:  cpu time      0.0115: real time      0.0116
     EDDAV:  cpu time      9.9919: real time     10.0805
       DOS:  cpu time      0.0008: real time      0.0011
    CHARGE:  cpu time      0.1197: real time      0.1204
    MIXING:  cpu time      0.0041: real time      0.0041
    --------------------------------------------
      LOOP:  cpu time     10.2149: real time     10.3053

 eigenvalue-minimisations  :  6688
 total energy-change (2. order) :-0.9651067E+01  (-0.2071037E+02)
 number of electron    1026.0005470 magnetization
 augmentation part      189.0162613 magnetization

 Broyden mixing:
  rms(total) = 0.52970E+01    rms(broyden)= 0.52966E+01
  rms(prec ) = 0.53810E+01
  weight for this iteration     100.00

 eigenvalues of (default mixing * dielectric matrix)
  average eigenvalue GAMMA=   1.8549
  0.8691  2.8407

 Free energy of the ion-electron system (eV)
  ---------------------------------------------------
  alpha Z        PSCENC =      6134.83985869
  Ewald energy   TEWEN  =    -69271.42348338
  -Hartree energ DENC   =    -18242.81555843
  -exchange      EXHF   =         0.00000000
  -V(xc)+E(xc)   XCENC  =      4237.05300547
  PAW double counting   =     97637.99284952   -97607.75779719
  entropy T*S    EENTRO =        -0.00000000
  eigenvalues    EBANDS =     -9837.09219505
  atomic energy  EATOM  =     85925.18186677
  Solvation  Ediel_sol  =         0.00000000
  ---------------------------------------------------
  free energy    TOTEN  =     -1024.02145359 eV

  energy without entropy =    -1024.02145359  energy(sigma->0) =    -1024.02145359


--------------------------------------------------------------------------------------------------------




--------------------------------------- Iteration      1(   8)  ---------------------------------------


    POTLOK:  cpu time      0.0877: real time      0.0886
    SETDIJ:  cpu time      0.0117: real time      0.0118
     EDDAV:  cpu time      9.8953: real time      9.9857
       DOS:  cpu time      0.0008: real time      0.0012
    CHARGE:  cpu time      0.1188: real time      0.1195
    MIXING:  cpu time      0.0040: real time      0.0041
    --------------------------------------------
      LOOP:  cpu time     10.1184: real time     10.2107

 eigenvalue-minimisations  :  6528
 total energy-change (2. order) :-0.1078152E+01  (-0.6266511E+01)
 number of electron    1026.0005412 magnetization
 augmentation part      194.9088235 magnetization

 Broyden mixing:
  rms(total) = 0.29405E+01    rms(broyden)= 0.29401E+01
  rms(prec ) = 0.30899E+01
  weight for this iteration     100.00

 eigenvalues of (default mixing * dielectric matrix)
  average eigenvalue GAMMA=   1.2483
  2.0543  1.0086  0.6820

 Free energy of the ion-electron system (eV)
  ---------------------------------------------------
  alpha Z        PSCENC =      6134.83985869
  Ewald energy   TEWEN  =    -69271.42348338
  -Hartree energ DENC   =    -17661.33200405
  -exchange      EXHF   =         0.00000000
  -V(xc)+E(xc)   XCENC  =      4207.44643713
  PAW double counting   =    124759.13010399  -124834.79782251
  entropy T*S    EENTRO =        -0.00000000
  eigenvalues    EBANDS =    -10284.14456266
  atomic energy  EATOM  =     85925.18186677
  Solvation  Ediel_sol  =         0.00000000
  ---------------------------------------------------
  free energy    TOTEN  =     -1025.09960601 eV

  energy without entropy =    -1025.09960601  energy(sigma->0) =    -1025.09960601


--------------------------------------------------------------------------------------------------------




--------------------------------------- Iteration      1(   9)  ---------------------------------------


    POTLOK:  cpu time      0.0811: real time      0.0821
    SETDIJ:  cpu time      0.0121: real time      0.0122
     EDDAV:  cpu time      9.8257: real time      9.9118
       DOS:  cpu time      0.0008: real time      0.0011
    CHARGE:  cpu time      0.1194: real time      0.1205
    MIXING:  cpu time      0.0048: real time      0.0048
    --------------------------------------------
      LOOP:  cpu time     10.0439: real time     10.1325

 eigenvalue-minimisations  :  6528
 total energy-change (2. order) : 0.3485363E+01  (-0.1257799E+01)
 number of electron    1026.0005529 magnetization
 augmentation part      191.8003735 magnetization

 Broyden mixing:
  rms(total) = 0.37871E+00    rms(broyden)= 0.37829E+00
  rms(prec ) = 0.43909E+00
  weight for this iteration     100.00

 eigenvalues of (default mixing * dielectric matrix)
  average eigenvalue GAMMA=   1.3799
  2.4685  1.1638  1.1638  0.7234

 Free energy of the ion-electron system (eV)
  ---------------------------------------------------
  alpha Z        PSCENC =      6134.83985869
  Ewald energy   TEWEN  =    -69271.42348338
  -Hartree energ DENC   =    -17884.80914834
  -exchange      EXHF   =         0.00000000
  -V(xc)+E(xc)   XCENC  =      4218.37362656
  PAW double counting   =    117485.42641615  -117537.05537314
  entropy T*S    EENTRO =        -0.00000000
  eigenvalues    EBANDS =    -10092.14800631
  atomic energy  EATOM  =     85925.18186677
  Solvation  Ediel_sol  =         0.00000000
  ---------------------------------------------------
  free energy    TOTEN  =     -1021.61424300 eV

  energy without entropy =    -1021.61424300  energy(sigma->0) =    -1021.61424300


--------------------------------------------------------------------------------------------------------




--------------------------------------- Iteration      1(  10)  ---------------------------------------


    POTLOK:  cpu time      0.0808: real time      0.0814
    SETDIJ:  cpu time      0.0122: real time      0.0123
     EDDAV:  cpu time     10.2766: real time     10.3678
       DOS:  cpu time      0.0009: real time      0.0012
    CHARGE:  cpu time      0.1176: real time      0.1186
    MIXING:  cpu time      0.0046: real time      0.0047
    --------------------------------------------
      LOOP:  cpu time     10.4927: real time     10.5859

 eigenvalue-minimisations  :  6864
 total energy-change (2. order) :-0.3992884E-01  (-0.3557178E+00)
 number of electron    1026.0005395 magnetization
 augmentation part      191.3925174 magnetization

 Broyden mixing:
  rms(total) = 0.46155E+00    rms(broyden)= 0.46139E+00
  rms(prec ) = 0.52842E+00
  weight for this iteration     100.00

 eigenvalues of (default mixing * dielectric matrix)
  average eigenvalue GAMMA=   1.3717
  2.5829  1.8242  0.9001  0.9001  0.6511

 Free energy of the ion-electron system (eV)
  ---------------------------------------------------
  alpha Z        PSCENC =      6134.83985869
  Ewald energy   TEWEN  =    -69271.42348338
  -Hartree energ DENC   =    -17968.47168693
  -exchange      EXHF   =         0.00000000
  -V(xc)+E(xc)   XCENC  =      4224.39642431
  PAW double counting   =    119130.46642494  -119190.64876430
  entropy T*S    EENTRO =        -0.00000000
  eigenvalues    EBANDS =    -10005.99481193
  atomic energy  EATOM  =     85925.18186677
  Solvation  Ediel_sol  =         0.00000000
  ---------------------------------------------------
  free energy    TOTEN  =     -1021.65417184 eV

  energy without entropy =    -1021.65417184  energy(sigma->0) =    -1021.65417184


--------------------------------------------------------------------------------------------------------




--------------------------------------- Iteration      1(  11)  ---------------------------------------


    POTLOK:  cpu time      0.0833: real time      0.0840
    SETDIJ:  cpu time      0.0115: real time      0.0115
     EDDAV:  cpu time      9.9876: real time     10.0756
       DOS:  cpu time      0.0009: real time      0.0013
    CHARGE:  cpu time      0.1185: real time      0.1193
    MIXING:  cpu time      0.0044: real time      0.0044
    --------------------------------------------
      LOOP:  cpu time     10.2062: real time     10.2961

 eigenvalue-minimisations  :  6592
 total energy-change (2. order) : 0.1544962E+00  (-0.1014219E+00)
 number of electron    1026.0005465 magnetization
 augmentation part      190.6940904 magnetization

 Broyden mixing:
  rms(total) = 0.14365E+00    rms(broyden)= 0.14352E+00
  rms(prec ) = 0.15462E+00
  weight for this iteration     100.00

 eigenvalues of (default mixing * dielectric matrix)
  average eigenvalue GAMMA=   1.2893
  2.1937  2.1937  1.0244  1.0244  0.7627  0.5372

 Free energy of the ion-electron system (eV)
[...]
  x     0.00015    -0.00019    -0.00041     0.00005    -0.00000     0.00010
  y     0.00015    -0.00009     0.00020     0.00017     0.00006    -0.00000
  z     0.00002     0.00001    -0.00009    -0.00000     0.00017    -0.00049

 BORN EFFECTIVE CHARGES (including local field effects) (in |e|, cummulative output)
 ---------------------------------------------------------------------------------
 ion    1
    1     2.55423     0.00012     0.00050
    2     0.00017     2.55453    -0.00000
    3     0.00120    -0.00056     2.55301
 ion    2
    1     2.55480     0.00009     0.00030
    2     0.00032     2.55408    -0.00089
    3     0.00066    -0.00042     2.55343
 ion    3
    1     2.55440    -0.00002    -0.00032
    2    -0.00036     2.55378    -0.00011
    3     0.00055    -0.00100     2.55347
 ion    4
    1     2.55332     0.00120    -0.00003
    2     0.00026     2.55425    -0.00031
    3    -0.00015     0.00006     2.55436
 ion    5
    1     2.55249     0.00098     0.00043
    2     0.00038     2.55314    -0.00094
    3     0.00089    -0.00109     2.55609
 ion    6
    1     2.55473     0.00045    -0.00056
    2    -0.00020     2.55418     0.00097
    3    -0.00063     0.00191     2.55290
 ion    7
    1     2.55473    -0.00099    -0.00004
    2     0.00013     2.55344     0.00174
    3     0.00051     0.00122     2.55394
 ion    8
    1     2.55208    -0.00077     0.00008
    2    -0.00045     2.55496    -0.00014
    3    -0.00037     0.00049     2.55457
 ion    9
    1     2.55407     0.00016    -0.00015
    2     0.00095     2.55412    -0.00058
    3     0.00024    -0.00035     2.55370
 ion   10
    1     2.55401    -0.00171     0.00078
    2    -0.00060     2.55406    -0.00022
    3     0.00016     0.00045     2.55299
 ion   11
    1     2.55406     0.00050    -0.00067
    2    -0.00044     2.55567    -0.00095
    3    -0.00007    -0.00072     2.55258
 ion   12
    1     2.55324     0.00047    -0.00006
    2     0.00075     2.55298     0.00115
    3     0.00024     0.00030     2.55482
 ion   13
    1     2.55453     0.00192    -0.00022
    2     0.00136     2.55431    -0.00154
    3    -0.00019    -0.00079     2.55303
 ion   14
    1     2.55328    -0.00042    -0.00008
    2    -0.00033     2.55259     0.00103
    3     0.00056     0.00027     2.55630
 ion   15
    1     2.55404    -0.00026     0.00030
    2     0.00004     2.55503     0.00011
    3     0.00011    -0.00023     2.55264
 ion   16
    1     2.55235     0.00061    -0.00033
    2     0.00115     2.55407     0.00071
    3    -0.00106     0.00026     2.55545
 ion   17
    1     2.55348    -0.00052     0.00077
    2    -0.00036     2.55475     0.00012
    3     0.00108     0.00062     2.55385
 ion   18
    1     2.55420    -0.00042    -0.00041
    2    -0.00000     2.55423    -0.00055
    3    -0.00008     0.00010     2.55332
 ion   19
    1     2.55289    -0.00007    -0.00049
    2    -0.00051     2.55477    -0.00078
    3    -0.00095    -0.00009     2.55379
 ion   20
    1     2.55372    -0.00079    -0.00021
    2    -0.00054     2.55527     0.00025
    3    -0.00111     0.00013     2.55338
 ion   21
    1     2.55418    -0.00042     0.00008
    2    -0.00057     2.55281    -0.00022
    3    -0.00043    -0.00100     2.55435
 ion   22
    1     2.55265     0.00032    -0.00012
    2    -0.00063     2.55521     0.00012
    3    -0.00015     0.00146     2.55385
 ion   23
    1     2.55526     0.00049    -0.00023
    2     0.00022     2.55202    -0.00017
    3    -0.00126    -0.00063     2.55446
 ion   24
    1     2.55368     0.00052     0.00038
    2     0.00011     2.55356     0.00030
    3     0.00106     0.00049     2.55424
 ion   25
    1     2.55339    -0.00122    -0.00016
    2    -0.00124     2.55289    -0.00002
    3     0.00038    -0.00100     2.55578
 ion   26
    1     2.55528     0.00064     0.00043
    2     0.00133     2.55429     0.00019
    3     0.00036     0.00036     2.55246
 ion   27
    1     2.55278    -0.00031    -0.00030
    2    -0.00057     2.55552     0.00021
    3    -0.00078     0.00062     2.55339
 ion   28
    1     6.81670     0.00117     0.00155
    2     0.00236     6.81436     0.00272
    3    -0.00406    -0.00136     6.81429
 ion   29
    1     6.81408    -0.00332    -0.00085
    2    -0.00132     6.81657    -0.00257
    3    -0.00179     0.00338     6.81461
 ion   30
    1     6.81711    -0.00182    -0.00316
    2    -0.00184     6.81810     0.00116
    3     0.00402    -0.00121     6.81667
 ion   31
    1     6.81119     0.00132    -0.00219
    2     0.00026     6.81620    -0.00288
    3     0.00120     0.00171     6.81722
 ion   32
    1     6.81413     0.00065     0.00069
    2     0.00015     6.81727     0.00392
    3    -0.00076    -0.00245     6.81830
 ion   33
    1     6.81589     0.00100     0.00012
    2     0.00189     6.81112    -0.00133
    3    -0.00074     0.00063     6.81030
 ion   34
    1     6.81937     0.00061    -0.00369
    2    -0.00077     6.82002    -0.00132
    3     0.00122    -0.00282     6.81628
 ion   35
    1     6.81670    -0.00036     0.00209
    2     0.00038     6.81479    -0.00084
    3     0.00095    -0.00095     6.81445
 ion   36
    1     6.81930    -0.00083     0.00406
    2    -0.00058     6.81764     0.00090
    3    -0.00173     0.00295     6.82263
 ion   37
    1     6.81556    -0.00209    -0.00026
    2     0.00137     6.81747     0.00592
    3     0.00127     0.00135     6.81294
 ion   38
    1     6.81293     0.00186     0.00090
    2     0.00303     6.81260    -0.00409
    3     0.00117     0.00316     6.81771
 ion   39
    1     6.82042     0.00186     0.00311
    2    -0.00118     6.82017    -0.00002
    3    -0.00020    -0.00361     6.81887
 ion   40
    1     6.81855    -0.00088    -0.00101
    2     0.00117     6.81261    -0.00186
    3     0.00335     0.00317     6.81431
 ion   41
    1     6.81477    -0.00041     0.00217
    2    -0.00453     6.81381    -0.00024
    3    -0.00304    -0.00186     6.81241
 ion   42
    1     6.81315    -0.00181    -0.00051
    2     0.00081     6.81864     0.00172
    3    -0.00010    -0.00103     6.81313
 ion   43
    1     6.81690     0.00161     0.00079
    2    -0.00251     6.81836    -0.00208
    3     0.00055    -0.00021     6.81688
 ion   44
    1     6.81817    -0.00051     0.00022
    2     0.00189     6.81908     0.00315
    3     0.00004    -0.00267     6.81624
 ion   45
    1     6.81578     0.00132    -0.00104
    2     0.00083     6.81349    -0.00266
    3     0.00027     0.00163     6.82206
 ion   46
    1     6.81501     0.00188    -0.00256
    2    -0.00027     6.81791     0.00009
    3     0.00104    -0.00091     6.81833
 ion   47
    1     6.81831     0.00144     0.00034
    2    -0.00200     6.81280    -0.00026
    3     0.00048     0.00051     6.81391
 ion   48
    1     6.81327    -0.00112     0.00099
    2     0.00109     6.81687    -0.00117
    3    -0.00150    -0.00096     6.81582
 ion   49
    1     6.81647    -0.00009     0.00407
    2    -0.00036     6.81514    -0.00306
    3    -0.00278     0.00168     6.81592
 ion   50
    1     6.81620    -0.00159    -0.00202
    2     0.00117     6.81918    -0.00123
    3     0.00493    -0.00086     6.81605
 ion   51
    1     6.81090     0.00170    -0.00133
    2     0.00043     6.81265     0.00364
    3    -0.00163    -0.00087     6.81275
 ion   52
    1     6.81705    -0.00361     0.00223
    2    -0.00104     6.81582     0.00161
    3    -0.00297    -0.00327     6.81541
 ion   53
    1     6.81478     0.00218    -0.00094
    2     0.00135     6.81540     0.00221
    3     0.00187     0.00243     6.81672
 ion   54
    1     6.81875    -0.00043    -0.00369
    2    -0.00126     6.81748    -0.00199
    3     0.00015     0.00207     6.81663
 ion   55
    1    -1.94371     0.00046     0.00040
    2    -0.00081    -5.48043    -0.00208
    3     0.00038    -0.00263    -1.94554
 ion   56
    1    -1.94492     0.00083    -0.00030
    2     0.00141    -5.47922    -0.00120
    3    -0.00019     0.00212    -1.94477
 ion   57
    1    -1.94350    -0.00115     0.00043
    2    -0.00102    -5.48630    -0.00129
    3     0.00038    -0.00089    -1.94359
 ion   58
    1    -1.94533     0.00090     0.00049
    2     0.00027    -5.47715    -0.00150
    3     0.00058    -0.00108    -1.94460
 ion   59
    1    -1.94372    -0.00101    -0.00086
    2     0.00040    -5.48513     0.00153
    3    -0.00073     0.00075    -1.94318
 ion   60
    1    -1.94408     0.00159     0.00047
    2     0.00227    -5.47922     0.00048
    3     0.00008     0.00026    -1.94545
 ion   61
    1    -1.94335    -0.00010     0.00065
    2     0.00008    -5.48873     0.00382
    3     0.00017     0.00261    -1.94258
 ion   62
    1    -1.94385    -0.00005    -0.00034
    2    -0.00085    -5.48054    -0.00022
    3    -0.00016    -0.00259    -1.94430
 ion   63
    1    -1.94554    -0.00029    -0.00026
    2    -0.00072    -5.47793     0.00062
    3     0.00013     0.00137    -1.94429
 ion   64
    1    -1.94365    -0.00005    -0.00024
    2    -0.00136    -5.48601    -0.00107
    3    -0.00028    -0.00168    -1.94430
 ion   65
    1    -1.94399    -0.00167    -0.00035
    2    -0.00065    -5.48382    -0.00107
    3    -0.00034     0.00023    -1.94288
 ion   66
    1    -1.94370     0.00000    -0.00010
    2    -0.00144    -5.48197    -0.00053
    3    -0.00002     0.00113    -1.94342
 ion   67
    1    -1.94449    -0.00158     0.00019
    2     0.00086    -5.47888    -0.00062
    3    -0.00017    -0.00019    -1.94449
 ion   68
    1    -1.94488     0.00130    -0.00004
    2    -0.00028    -5.47589    -0.00086
    3     0.00028     0.00167    -1.94482
 ion   69
    1    -1.94413     0.00105    -0.00009
    2     0.00126    -5.48611    -0.00019
    3     0.00007    -0.00204    -1.94475
 ion   70
    1    -1.94390     0.00149     0.00023
    2     0.00079    -5.48027     0.00041
    3    -0.00007     0.00269    -1.94445
 ion   71
    1    -1.94447     0.00054    -0.00069
    2     0.00063    -5.48301     0.00218
    3    -0.00037    -0.00238    -1.94434
 ion   72
    1    -1.94506    -0.00090     0.00052
    2    -0.00037    -5.47953     0.00167
    3     0.00044     0.00055    -1.94491
 ion   73
    1    -1.94444    -0.00051     0.00029
    2     0.00013    -5.48154    -0.00089
    3     0.00034    -0.00203    -1.94498
 ion   74
    1    -1.94451     0.00100    -0.00001
    2    -0.00162    -5.47655    -0.00148
    3    -0.00028     0.00056    -1.94526
 ion   75
    1    -1.94210    -0.00011    -0.00004
    2     0.00017    -5.48566    -0.00244
    3    -0.00011     0.00059    -1.94403
 ion   76
    1    -1.94360     0.00246    -0.00074
    2     0.00208    -5.48476     0.00001
    3    -0.00059     0.00107    -1.94362
 ion   77
    1    -1.94379     0.00053     0.00022
    2     0.00138    -5.48331     0.00077
    3    -0.00023     0.00040    -1.94317
 ion   78
    1    -1.94527    -0.00035     0.00049
    2     0.00095    -5.47804     0.00253
    3     0.00055     0.00064    -1.94479
 ion   79
    1    -1.94428    -0.00308    -0.00030
    2    -0.00239    -5.47905     0.00117
    3     0.00034     0.00007    -1.94483
 ion   80
    1    -1.94430    -0.00153     0.00014
    2    -0.00075    -5.48399     0.00010
    3    -0.00045    -0.00058    -1.94446
 ion   81
    1    -1.94399     0.00018     0.00018
    2    -0.00147    -5.47979     0.00014
    3    -0.00009    -0.00078    -1.94407
 ion   82
    1    -1.94424    -0.00025    -0.00002
    2    -0.00035    -1.94472     0.00158
    3     0.00072    -0.00026    -5.48119
 ion   83
    1    -1.94501     0.00027     0.00309
    2     0.00012    -1.94487    -0.00174
    3     0.00066    -0.00126    -5.47839
 ion   84
    1    -1.94386    -0.00014    -0.00405
    2    -0.00034    -1.94360     0.00033
    3    -0.00127     0.00108    -5.48281
 ion   85
    1    -1.94523    -0.00032    -0.00083
    2    -0.00034    -1.94483    -0.00198
    3    -0.00100    -0.00004    -5.47578
 ion   86
    1    -1.94360    -0.00076    -0.00024
    2    -0.00064    -1.94247     0.00144
    3     0.00092     0.00060    -5.48771
 ion   87
    1    -1.94380    -0.00011     0.00071
    2    -0.00013    -1.94394     0.00106
    3     0.00006     0.00018    -5.47890
 ion   88
    1    -1.94335    -0.00007    -0.00111
    2    -0.00008    -1.94452     0.00120
    3    -0.00019     0.00250    -5.48618
 ion   89
    1    -1.94550    -0.00007    -0.00054
    2    -0.00011    -1.94518    -0.00054
    3    -0.00025    -0.00167    -5.47649
 ion   90
    1    -1.94325    -0.00039     0.00202
    2    -0.00059    -1.94497    -0.00135
    3    -0.00044    -0.00098    -5.48605
 ion   91
    1    -1.94272    -0.00020     0.00096
    2    -0.00018    -1.94317     0.00207
    3    -0.00101    -0.00040    -5.48255
 ion   92
    1    -1.94576    -0.00025    -0.00126
    2    -0.00054    -1.94531    -0.00120
    3     0.00028    -0.00036    -5.47828
 ion   93
    1    -1.94424    -0.00023     0.00153
    2    -0.00002    -1.94458    -0.00074
    3     0.00020    -0.00004    -5.48426
 ion   94
    1    -1.94483     0.00027    -0.00234
    2     0.00006    -1.94266    -0.00153
    3    -0.00117    -0.00075    -5.48184
 ion   95
    1    -1.94378     0.00001     0.00021
    2     0.00025    -1.94628    -0.00044
    3    -0.00049    -0.00103    -5.47728
 ion   96
    1    -1.94510    -0.00008     0.00221
    2     0.00002    -1.94276     0.00265
    3     0.00155     0.00246    -5.47844
 ion   97
    1    -1.94458    -0.00005     0.00009
    2     0.00019    -1.94490    -0.00193
    3    -0.00042    -0.00100    -5.48542
 ion   98
    1    -1.94290    -0.00014    -0.00014
    2    -0.00008    -1.94444     0.00153
    3    -0.00046     0.00003    -5.48187
 ion   99
    1    -1.94390     0.00077     0.00033
    2     0.00072    -1.94499    -0.00032
    3     0.00113     0.00099    -5.48348
 ion  100
    1    -1.94432     0.00056    -0.00046
    2     0.00064    -1.94310    -0.00066
    3    -0.00015    -0.00020    -5.48445
 ion  101
    1    -1.94389    -0.00043    -0.00061
    2    -0.00010    -1.94435    -0.00075
    3     0.00036    -0.00159    -5.48208
 ion  102
    1    -1.94385    -0.00014     0.00077
    2     0.00000    -1.94584     0.00051
    3    -0.00017     0.00170    -5.47787
 ion  103
    1    -1.94530    -0.00044     0.00347
    2    -0.00030    -1.94469     0.00018
    3     0.00049     0.00162    -5.47801
 ion  104
    1    -1.94354     0.00065    -0.00071
    2     0.00049    -1.94337    -0.00127
    3    -0.00106    -0.00035    -5.48208
 ion  105
    1    -1.94432    -0.00005    -0.00254
    2    -0.00003    -1.94332     0.00166
    3     0.00035    -0.00068    -5.48145
 ion  106
    1    -1.94300     0.00057     0.00042
    2     0.00053    -1.94525     0.00080
    3    -0.00015     0.00095    -5.48159
 ion  107
    1    -1.94456     0.00079     0.00104
    2     0.00079    -1.94503     0.00218
    3     0.00069    -0.00028    -5.48088
 ion  108
    1    -1.94358     0.00041    -0.00211
    2     0.00049    -1.94494    -0.00263
    3    -0.00029    -0.00123    -5.48264
 ion  109
    1    -5.48274     0.00117     0.00149
    2     0.00008    -1.94349    -0.00052
    3     0.00017    -0.00020    -1.94375
 ion  110
    1    -5.48446     0.00131     0.00072
    2    -0.00097    -1.94349     0.00097
    3    -0.00046     0.00049    -1.94446
 ion  111
    1    -5.47717     0.00004     0.00079
    2     0.00027    -1.94565     0.00028
    3     0.00179     0.00042    -1.94517
 ion  112
    1    -5.47747    -0.00102    -0.00055
    2    -0.00094    -1.94390     0.00056
    3    -0.00152    -0.00009    -1.94461
 ion  113
    1    -5.48096     0.00021     0.00041
    2     0.00114    -1.94395    -0.00082
    3     0.00151    -0.00059    -1.94383
 ion  114
    1    -5.48071     0.00136     0.00029
    2    -0.00028    -1.94377    -0.00051
    3    -0.00065    -0.00041    -1.94444
 ion  115
    1    -5.48474     0.00096     0.00212
    2     0.00149    -1.94426     0.00056
    3     0.00110     0.00091    -1.94412
 ion  116
    1    -5.47950    -0.00060    -0.00030
    2    -0.00047    -1.94550    -0.00007
    3     0.00027    -0.00011    -1.94343
 ion  117
    1    -5.48546    -0.00001     0.00092
    2     0.00019    -1.94445    -0.00005
    3     0.00038    -0.00046    -1.94424
 ion  118
    1    -5.48107    -0.00077     0.00077
    2     0.00156    -1.94463    -0.00032
    3    -0.00105     0.00015    -1.94498
 ion  119
    1    -5.47619     0.00085     0.00061
    2     0.00207    -1.94441     0.00024
    3     0.00057    -0.00045    -1.94361
 ion  120
    1    -5.48600     0.00038    -0.00020
    2    -0.00058    -1.94380     0.00021
    3     0.00114     0.00051    -1.94389
 ion  121
    1    -5.47884     0.00109     0.00044
    2     0.00008    -1.94399    -0.00001
    3     0.00287    -0.00071    -1.94471
 ion  122
    1    -5.47830    -0.00017    -0.00034
    2    -0.00183    -1.94425    -0.00018
    3    -0.00143     0.00028    -1.94505
 ion  123
    1    -5.47977     0.00118    -0.00101
    2     0.00150    -1.94345    -0.00067
    3    -0.00109    -0.00063    -1.94495
 ion  124
    1    -5.48583    -0.00088    -0.00200
    2    -0.00248    -1.94387     0.00119
    3     0.00090     0.00112    -1.94287
 ion  125
    1    -5.48333     0.00001     0.00126
    2     0.00034    -1.94499    -0.00054
    3     0.00099    -0.00021    -1.94406
 ion  126
    1    -5.48278     0.00227    -0.00002
    2     0.00040    -1.94472     0.00027
    3    -0.00238    -0.00019    -1.94357
 ion  127
    1    -5.48009    -0.00097    -0.00194
    2    -0.00067    -1.94432     0.00012
    3     0.00023     0.00043    -1.94424
 ion  128
    1    -5.48160    -0.00181    -0.00069
    2    -0.00079    -1.94482     0.00123
    3     0.00026     0.00067    -1.94354
 ion  129
    1    -5.48291     0.00003    -0.00154
    2    -0.00017    -1.94397    -0.00037
    3    -0.00289    -0.00010    -1.94436
 ion  130
    1    -5.48663    -0.00019    -0.00051
    2     0.00124    -1.94342    -0.00012
    3    -0.00106    -0.00087    -1.94423
 ion  131
    1    -5.48258     0.00063     0.00028
    2    -0.00009    -1.94381    -0.00013
    3     0.00058    -0.00012    -1.94448
 ion  132
    1    -5.47734    -0.00283     0.00100
    2    -0.00022    -1.94285    -0.00061
    3     0.00060    -0.00024    -1.94391
 ion  133
    1    -5.47860     0.00043    -0.00039
    2    -0.00047    -1.94592     0.00048
    3    -0.00279     0.00064    -1.94499
 ion  134
    1    -5.48280    -0.00054    -0.00070
    2     0.00052    -1.94386    -0.00031
    3     0.00003    -0.00004    -1.94334
 ion  135
    1    -5.48082    -0.00249    -0.00090
    2    -0.00125    -1.94566     0.00011
    3     0.00134    -0.00045    -1.94434


--------------------------------------------------------------------------------------------------------


     LOOP+:  cpu time   1771.1555: real time   1786.6526
    4ORBIT:  cpu time      0.0000: real time      0.0000

 total amount of memory used by VASP MPI-rank0   161795. kBytes
=======================================================================

   base      :      30000. kBytes
   nonlr-proj:      29670. kBytes
   fftplans  :       4751. kBytes
   grid      :      16162. kBytes
   one-center:       2099. kBytes
   wavefun   :      79113. kBytes



 General timing and accounting informations for this job:
 ========================================================

                  Total CPU time used (sec):     1784.599
                            User time (sec):     1771.809
                          System time (sec):       12.790
                         Elapsed time (sec):     1800.920

                   Maximum memory used (kb):      644268.
                   Average memory used (kb):          N/A

                          Minor page faults:      1169875
                          Major page faults:          250
                 Voluntary context switches:        10345
