 vasp.6.3.0 20Jan22 (build Mar 29 2022 16:24:06) complex

 executed on             Bridges2 date 2023.01.12  19:12:42
 running on   32 total cores
 distrk:  each k-point on    4 cores,    8 groups
 distr:  one band on NCORE=   1 cores,    4 groups


--------------------------------------------------------------------------------------------------------


 INCAR:
   ICHARG = 2
   LWAVE = .FALSE.
   LCHARG = .FALSE.
   LVTOT = .FALSE.
   NCORE = 1
   KPAR = 8
   EDIFF = 1E-7
   NELM = 80
   PREC = Normal
   LREAL = Auto
   NELMIN = 4
   ENCUT = 400.0 eV
   ISPIN = 1
   ISMEAR = 0
   SIGMA = 0.10
   NSW = 0
   LEPSILON = .TRUE.
   LPEAD = .TRUE.
   ISYM = 0

 POTCAR:    PAW_PBE Ti_pv 07Sep2000
 POTCAR:    PAW_PBE O 08Apr2002
 -----------------------------------------------------------------------------
|                                                                             |
|           W    W    AA    RRRRR   N    N  II  N    N   GGGG   !!!           |
|           W    W   A  A   R    R  NN   N  II  NN   N  G    G  !!!           |
|           W    W  A    A  R    R  N N  N  II  N N  N  G       !!!           |
|           W WW W  AAAAAA  RRRRR   N  N N  II  N  N N  G  GGG   !            |
|           WW  WW  A    A  R   R   N   NN  II  N   NN  G    G                |
|           W    W  A    A  R    R  N    N  II  N    N   GGGG   !!!           |
|                                                                             |
|     For optimal performance we recommend to set                             |
|       NCORE = 2 up to number-of-cores-per-socket                            |
|     NCORE specifies how many cores store one orbital (NPAR=cpu/NCORE).      |
|     This setting can greatly improve the performance of VASP for DFT.       |
|     The default, NCORE=1 might be grossly inefficient on modern             |
|     multi-core architectures or massively parallel machines. Do your        |
|     own testing! More info at https://www.vasp.at/wiki/index.php/NCORE      |
|     Unfortunately you need to use the default for GW and RPA                |
|     calculations (for HF NCORE is supported but not extensively tested      |
|     yet).                                                                   |
|                                                                             |
 -----------------------------------------------------------------------------

 POTCAR:    PAW_PBE Ti_pv 07Sep2000
   VRHFIN =Ti: d3 s1
   LEXCH  = PE
   EATOM  =  1042.5995 eV,   76.6289 Ry

   TITEL  = PAW_PBE Ti_pv 07Sep2000
   LULTRA =        F    use ultrasoft PP ?
   IUNSCR =        1    unscreen: 0-lin 1-nonlin 2-no
   RPACOR =    2.200    partial core radius
   POMASS =   47.880; ZVAL   =   10.000    mass and valenz
   RCORE  =    2.500    outmost cutoff radius
   RWIGS  =    2.500; RWIGS  =    1.323    wigner-seitz radius (au A)
   ENMAX  =  222.335; ENMIN  =  166.751 eV
   RCLOC  =    1.701    cutoff for local pot
   LCOR   =        T    correct aug charges
   LPAW   =        T    paw PP
   EAUG   =  482.848
   DEXC   =    0.000
   RMAX   =    2.564    core radius for proj-oper
   RAUG   =    1.300    factor for augmentation sphere
   RDEP   =    2.538    radius for radial grids
   RDEPT  =    1.952    core radius for aug-charge

   Atomic configuration
    8 entries
     n  l   j            E        occ.
     1  0  0.50     -4865.3608   2.0000
     2  0  0.50      -533.1368   2.0000
     2  1  1.50      -440.5031   6.0000
     3  0  0.50       -59.3186   2.0000
     3  1  1.50       -35.7012   6.0000
     3  2  2.50        -1.9157   3.0000
     4  0  0.50        -3.7291   1.0000
     4  3  2.50        -1.3606   0.0000
   Description
     l       E           TYP  RCUT    TYP  RCUT
     1    -35.7012140     23  2.300
     1     -1.3605826     23  2.300
     2     -1.9156996     23  2.500
     2     -0.4063033     23  2.500
     0     -3.7290856     23  2.500
     0     20.4087390     23  2.500
  local pseudopotential read in
  partial core-charges read in
  partial kinetic energy density read in
  atomic valenz-charges read in
  non local Contribution for L=           1  read in
    real space projection operators read in
  non local Contribution for L=           1  read in
    real space projection operators read in
  non local Contribution for L=           2  read in
    real space projection operators read in
  non local Contribution for L=           2  read in
    real space projection operators read in
  non local Contribution for L=           0  read in
    real space projection operators read in
  non local Contribution for L=           0  read in
    real space projection operators read in
    PAW grid and wavefunctions read in

   number of l-projection  operators is LMAX  =           6
   number of lm-projection operators is LMMAX =          18

 POTCAR:    PAW_PBE O 08Apr2002
   VRHFIN =O: s2p4
   LEXCH  = PE
   EATOM  =   432.3788 eV,   31.7789 Ry

   TITEL  = PAW_PBE O 08Apr2002
   LULTRA =        F    use ultrasoft PP ?
   IUNSCR =        1    unscreen: 0-lin 1-nonlin 2-no
   RPACOR =    1.200    partial core radius
   POMASS =   16.000; ZVAL   =    6.000    mass and valenz
   RCORE  =    1.520    outmost cutoff radius
   RWIGS  =    1.550; RWIGS  =    0.820    wigner-seitz radius (au A)
   ENMAX  =  400.000; ENMIN  =  300.000 eV
   ICORE  =        2    local potential
   LCOR   =        T    correct aug charges
   LPAW   =        T    paw PP
   EAUG   =  605.392
   DEXC   =    0.000
   RMAX   =    1.553    core radius for proj-oper
   RAUG   =    1.300    factor for augmentation sphere
   RDEP   =    1.550    radius for radial grids
   RDEPT  =    1.329    core radius for aug-charge

   Atomic configuration
    4 entries
     n  l   j            E        occ.
     1  0  0.50      -514.6923   2.0000
     2  0  0.50       -23.9615   2.0000
     2  1  0.50        -9.0305   4.0000
     3  2  1.50        -9.5241   0.0000
   Description
     l       E           TYP  RCUT    TYP  RCUT
     0    -23.9615318     23  1.200
     0     -9.5240782     23  1.200
     1     -9.0304911     23  1.520
     1      8.1634956     23  1.520
     2     -9.5240782      7  1.500
  local pseudopotential read in
  partial core-charges read in
  partial kinetic energy density read in
  kinetic energy density of atom read in
  atomic valenz-charges read in
  non local Contribution for L=           0  read in
    real space projection operators read in
  non local Contribution for L=           0  read in
    real space projection operators read in
  non local Contribution for L=           1  read in
    real space projection operators read in
  non local Contribution for L=           1  read in
    real space projection operators read in
    PAW grid and wavefunctions read in

   number of l-projection  operators is LMAX  =           4
   number of lm-projection operators is LMMAX =           8

 Optimization of the real space projectors (new method)

 maximal supplied QI-value         = 15.12
 optimisation between [QCUT,QGAM] = [ 10.13, 20.41] = [ 28.73,116.64] Ry
 Optimized for a Real-space Cutoff    1.51 Angstroem

   l    n(q)    QCUT    max X(q) W(low)/X(q) W(high)/X(q)  e(spline)
   1      9    10.129     4.216    0.12E-04    0.72E-04    0.60E-07
   1      9    10.129     5.422    0.84E-04    0.21E-03    0.15E-06
   2      8    10.129    72.084    0.33E-03    0.35E-04    0.17E-06
   2      8    10.129    65.965    0.33E-03    0.37E-04    0.17E-06
   0      9    10.129    41.531    0.17E-03    0.19E-03    0.81E-07
   0      9    10.129    16.290    0.12E-03    0.14E-03    0.64E-07
 Optimization of the real space projectors (new method)

 maximal supplied QI-value         = 24.76
 optimisation between [QCUT,QGAM] = [ 10.15, 20.30] = [ 28.85,115.39] Ry
 Optimized for a Real-space Cutoff    1.38 Angstroem

   l    n(q)    QCUT    max X(q) W(low)/X(q) W(high)/X(q)  e(spline)
   0      8    10.150    20.381    0.22E-03    0.32E-03    0.29E-06
   0      8    10.150    15.268    0.23E-03    0.35E-03    0.30E-06
   1      8    10.150     5.964    0.46E-03    0.53E-03    0.21E-06
   1      8    10.150     5.382    0.38E-03    0.45E-03    0.19E-06
  PAW_PBE Ti_pv 07Sep2000               :
 energy of atom  1       EATOM=-1042.5995
 kinetic energy error for atom=    0.0037 (will be added to EATOM!!)
  PAW_PBE O 08Apr2002                   :
 energy of atom  2       EATOM= -432.3788
 kinetic energy error for atom=    0.1156 (will be added to EATOM!!)


 POSCAR: Ti4 O8
  positions in cartesian coordinates
  No initial velocities read in
 exchange correlation table for  LEXCH =        8
   RHO(1)=    0.500       N(1)  =     2000
   RHO(2)=  100.500       N(2)  =     4000



--------------------------------------------------------------------------------------------------------


 ion  position               nearest neighbor table
   1  0.167  0.167  0.500-  56 1.94  55 1.94  40 1.94  37 1.94 100 2.00  46 2.00  31 3.06  28 3.06
                            11 3.06  10 3.06
   2  0.167  0.500  0.500-  56 1.94  41 1.94  38 1.94  57 1.94 101 2.00  47 2.00  11 3.06  32 3.06
                            29 3.06  12 3.06
   3  0.167  0.833  0.500-  57 1.94  42 1.94  39 1.94  55 1.94 102 2.00  48 2.00  12 3.06  33 3.06
                            30 3.06  10 3.06
   4  0.500  0.167  0.500-  40 1.94  59 1.94  58 1.94  43 1.95 103 2.00  49 2.00  31 3.06  14 3.06
                            13 3.06  34 3.06
   5  0.500  0.500  0.500-  59 1.94  41 1.94  60 1.94  44 1.94 104 2.00  50 2.00  32 3.06  14 3.06
                            35 3.06  15 3.06
   6  0.500  0.833  0.500-  60 1.94  42 1.94  58 1.94  45 1.94 105 2.00  51 2.00  15 3.06  33 3.06
                            13 3.06  36 3.06
   7  0.833  0.167  0.500-  62 1.94  61 1.94  37 1.94  43 1.95 106 2.00  52 2.00  34 3.06  17 3.06
                            16 3.06  28 3.06
   8  0.833  0.500  0.500-  44 1.94  62 1.94  63 1.94  38 1.94 107 2.00  53 2.00  35 3.06  17 3.06
                            29 3.06  18 3.06
   9  0.833  0.833  0.500-  63 1.94  45 1.94  61 1.94  39 1.94 108 2.00  54 2.00  36 3.06  18 3.06
                            30 3.06  16 3.06
  10  0.167  0.000  0.750-  67 1.94  64 1.94  46 1.94  48 1.94  73 2.00  55 2.00  22 3.06  19 3.06
                             1 3.06   3 3.06
  11  0.167  0.333  0.750-  47 1.94  46 1.94  68 1.94  65 1.94  74 2.00  56 2.00   2 3.06  23 3.06
                            20 3.06   1 3.06
  12  0.167  0.667  0.750-  48 1.94  69 1.94  66 1.94  47 1.94  75 2.00  57 2.00   3 3.06  24 3.06
                            21 3.06   2 3.06
  13  0.500  0.000  0.750-  67 1.94  49 1.94  51 1.94  70 1.94  76 2.00  58 2.00  22 3.06   4 3.06
                            25 3.06   6 3.06
  14  0.500  0.333  0.750-  50 1.94  68 1.94  49 1.94  71 1.94  77 2.00  59 2.00  23 3.06   5 3.06
                             4 3.06  26 3.06
  15  0.500  0.667  0.750-  51 1.94  69 1.94  50 1.94  72 1.94  78 2.00  60 2.00   6 3.06  24 3.06
                            27 3.06   5 3.06
  16  0.833  0.000  0.750-  70 1.94  52 1.94  64 1.94  54 1.94  79 2.00  61 2.00  25 3.06   7 3.06
                            19 3.06   9 3.06
  17  0.833  0.333  0.750-  71 1.94  53 1.94  52 1.94  65 1.94  80 2.00  62 2.00  26 3.06   8 3.06
                             7 3.06  20 3.06
  18  0.833  0.667  0.750-  54 1.94  72 1.94  66 1.94  53 1.94  81 2.00  63 2.00  27 3.06   9 3.06
                            21 3.06   8 3.06
  19  0.000  0.000  0.000-  73 1.94  91 1.94  79 1.94  93 1.94  82 2.00  64 2.00  10 3.06  28 3.06
                            16 3.06  30 3.06
  20  0.000  0.333  0.000-  92 1.94  74 1.94  91 1.94  80 1.94  83 2.00  65 2.00  29 3.06  11 3.06
                            28 3.06  17 3.06
  21  0.000  0.667  0.000-  93 1.94  75 1.94  81 1.94  92 1.94  84 2.00  66 2.00  30 3.06  12 3.06
                            18 3.06  29 3.06
  22  0.333  0.000  0.000-  76 1.94  73 1.94  94 1.94  96 1.94  85 2.00  67 2.00  13 3.06  10 3.06
                            31 3.06  33 3.06
  23  0.333  0.333  0.000-  77 1.94  95 1.94  74 1.94  94 1.94  86 2.00  68 2.00  14 3.06  32 3.06
                            11 3.06  31 3.06
  24  0.333  0.667  0.000-  96 1.94  78 1.94  75 1.94  95 1.94  87 2.00  69 2.00  33 3.06  15 3.06
                            12 3.06  32 3.06
  25  0.667  0.000  0.000-  79 1.94  97 1.94  76 1.94  99 1.94  88 2.00  70 2.00  16 3.06  34 3.06
                            13 3.06  36 3.06
  26  0.667  0.333  0.000-  80 1.94  98 1.94  97 1.94  77 1.94  89 2.00  71 2.00  17 3.06  35 3.06
                            34 3.06  14 3.06
  27  0.667  0.667  0.000-  81 1.94  99 1.94  78 1.94  98 1.94  90 2.00  72 2.00  18 3.06  36 3.06
                            15 3.06  35 3.06
  28  0.000  0.167  0.250-  83 1.94  82 1.94 100 1.94 106 1.94  37 2.00  91 2.00   1 3.06  20 3.06
                            19 3.06   7 3.06
  29  0.000  0.500  0.250-  83 1.94 101 1.94  84 1.94 107 1.94  38 2.00  92 2.00  20 3.06   2 3.06
                             8 3.06  21 3.06
  30  0.000  0.833  0.250-  84 1.94 102 1.94  82 1.94 108 1.94  39 2.00  93 2.00  21 3.06   3 3.06
                             9 3.06  19 3.06
  31  0.333  0.167  0.250- 103 1.94  86 1.94  85 1.94 100 1.94  40 2.00  94 2.00   4 3.06   1 3.06
                            23 3.06  22 3.06
  32  0.333  0.500  0.250-  86 1.94 104 1.94 101 1.94  87 1.94  41 2.00  95 2.00   5 3.06  23 3.06
                             2 3.06  24 3.06
  33  0.333  0.833  0.250-  87 1.94 105 1.94 102 1.94  85 1.94  42 2.00  96 2.00  24 3.06   6 3.06
                             3 3.06  22 3.06
  34  0.667  0.167  0.250- 106 1.94  89 1.94  88 1.94 103 1.94  97 2.00  43 2.01   7 3.06  26 3.06
                            25 3.06   4 3.06
  35  0.667  0.500  0.250- 107 1.94  89 1.94  90 1.94 104 1.94  44 2.00  98 2.00   8 3.06  26 3.06
                             5 3.06  27 3.06
  36  0.667  0.833  0.250-  90 1.94 108 1.94  88 1.94 105 1.94  45 2.00  99 2.00   9 3.06  27 3.06
                            25 3.06   6 3.06
  37  0.000  0.167  0.458-   1 1.94   7 1.94  28 2.00
  38  0.000  0.500  0.458-   2 1.94   8 1.94  29 2.00
  39  0.000  0.833  0.458-   3 1.94   9 1.94  30 2.00
  40  0.333  0.167  0.458-   4 1.94   1 1.94  31 2.00
  41  0.333  0.500  0.458-   5 1.94   2 1.94  32 2.00
  42  0.333  0.833  0.458-   6 1.94   3 1.94  33 2.00
  43  0.667  0.149  0.458-   7 1.95   4 1.95  34 2.01
  44  0.667  0.500  0.458-   8 1.94   5 1.94  35 2.00
  45  0.667  0.833  0.458-   9 1.94   6 1.94  36 2.00
  46  0.167  0.167  0.708-  11 1.94  10 1.94   1 2.00
  47  0.167  0.500  0.708-  11 1.94  12 1.94   2 2.00
  48  0.167  0.833  0.708-  12 1.94  10 1.94   3 2.00
  49  0.500  0.167  0.708-  14 1.94  13 1.94   4 2.00
  50  0.500  0.500  0.708-  14 1.94  15 1.94   5 2.00
  51  0.500  0.833  0.708-  15 1.94  13 1.94   6 2.00
  52  0.833  0.167  0.708-  17 1.94  16 1.94   7 2.00
  53  0.833  0.500  0.708-  17 1.94  18 1.94   8 2.00
  54  0.833  0.833  0.708-  18 1.94  16 1.94   9 2.00
  55  0.167  0.000  0.542-   1 1.94   3 1.94  10 2.00
  56  0.167  0.333  0.542-   2 1.94   1 1.94  11 2.00
  57  0.167  0.667  0.542-   3 1.94   2 1.94  12 2.00
  58  0.500  0.000  0.542-   4 1.94   6 1.94  13 2.00
  59  0.500  0.333  0.542-   5 1.94   4 1.94  14 2.00
  60  0.500  0.667  0.542-   6 1.94   5 1.94  15 2.00
  61  0.833  0.000  0.542-   7 1.94   9 1.94  16 2.00
  62  0.833  0.333  0.542-   8 1.94   7 1.94  17 2.00
  63  0.833  0.667  0.542-   9 1.94   8 1.94  18 2.00
  64  0.000  0.000  0.792-  10 1.94  16 1.94  19 2.00
  65  0.000  0.333  0.792-  11 1.94  17 1.94  20 2.00
  66  0.000  0.667  0.792-  12 1.94  18 1.94  21 2.00
  67  0.333  0.000  0.792-  13 1.94  10 1.94  22 2.00
  68  0.333  0.333  0.792-  14 1.94  11 1.94  23 2.00
  69  0.333  0.667  0.792-  15 1.94  12 1.94  24 2.00
  70  0.667  0.000  0.792-  16 1.94  13 1.94  25 2.00
  71  0.667  0.333  0.792-  17 1.94  14 1.94  26 2.00
  72  0.667  0.667  0.792-  18 1.94  15 1.94  27 2.00
  73  0.167  0.000  0.958-  22 1.94  19 1.94  10 2.00
  74  0.167  0.333  0.958-  23 1.94  20 1.94  11 2.00
  75  0.167  0.667  0.958-  24 1.94  21 1.94  12 2.00
  76  0.500  0.000  0.958-  22 1.94  25 1.94  13 2.00
  77  0.500  0.333  0.958-  23 1.94  26 1.94  14 2.00
  78  0.500  0.667  0.958-  24 1.94  27 1.94  15 2.00
  79  0.833  0.000  0.958-  25 1.94  19 1.94  16 2.00
  80  0.833  0.333  0.958-  26 1.94  20 1.94  17 2.00
  81  0.833  0.667  0.958-  27 1.94  21 1.94  18 2.00
  82  0.000  0.000  0.208-  28 1.94  30 1.94  19 2.00
  83  0.000  0.333  0.208-  29 1.94  28 1.94  20 2.00
  84  0.000  0.667  0.208-  30 1.94  29 1.94  21 2.00
  85  0.333  0.000  0.208-  31 1.94  33 1.94  22 2.00
  86  0.333  0.333  0.208-  32 1.94  31 1.94  23 2.00
  87  0.333  0.667  0.208-  33 1.94  32 1.94  24 2.00
  88  0.667  0.000  0.208-  34 1.94  36 1.94  25 2.00
  89  0.667  0.333  0.208-  35 1.94  34 1.94  26 2.00
  90  0.667  0.667  0.208-  36 1.94  35 1.94  27 2.00
  91  0.000  0.167  0.042-  20 1.94  19 1.94  28 2.00
  92  0.000  0.500  0.042-  20 1.94  21 1.94  29 2.00
  93  0.000  0.833  0.042-  21 1.94  19 1.94  30 2.00
  94  0.333  0.167  0.042-  23 1.94  22 1.94  31 2.00
  95  0.333  0.500  0.042-  23 1.94  24 1.94  32 2.00
  96  0.333  0.833  0.042-  24 1.94  22 1.94  33 2.00
  97  0.667  0.167  0.042-  26 1.94  25 1.94  34 2.00
  98  0.667  0.500  0.042-  26 1.94  27 1.94  35 2.00
  99  0.667  0.833  0.042-  27 1.94  25 1.94  36 2.00
 100  0.167  0.167  0.292-  31 1.94  28 1.94   1 2.00
 101  0.167  0.500  0.292-  32 1.94  29 1.94   2 2.00
 102  0.167  0.833  0.292-  33 1.94  30 1.94   3 2.00
 103  0.500  0.167  0.292-  31 1.94  34 1.94   4 2.00
 104  0.500  0.500  0.292-  32 1.94  35 1.94   5 2.00
 105  0.500  0.833  0.292-  33 1.94  36 1.94   6 2.00
 106  0.833  0.167  0.292-  34 1.94  28 1.94   7 2.00
 107  0.833  0.500  0.292-  35 1.94  29 1.94   8 2.00
 108  0.833  0.833  0.292-  36 1.94  30 1.94   9 2.00


IMPORTANT INFORMATION: All symmetrisations will be switched off!
NOSYMM: (Re-)initialisation of all symmetry stuff for point group C_1.


----------------------------------------------------------------------------------------

                                     Primitive cell

  volume of cell :    1243.1447

  direct lattice vectors                    reciprocal lattice vectors
    11.376843452  0.000000000  0.000000000     0.087897843  0.000000000  0.000000000
     0.000000000 11.376843452  0.000000000     0.000000000  0.087897843  0.000000000
     0.000000000  0.000000000  9.604574204     0.000000000  0.000000000  0.104117057

  length of vectors
    11.376843452 11.376843452  9.604574204     0.087897843  0.087897843  0.104117057

  position of ions in fractional coordinates (direct lattice)
     0.166666672  0.166666672  0.500000000
     0.166666672  0.500000000  0.500000000
     0.166666672  0.833333313  0.500000000
     0.500000000  0.166666672  0.500000000
     0.500000000  0.500000000  0.500000000
     0.500000000  0.833333313  0.500000000
     0.833333313  0.166666672  0.500000000
     0.833333313  0.500000000  0.500000000
     0.833333313  0.833333313  0.500000000
     0.166666672  0.000000000  0.750000000
     0.166666672  0.333333343  0.750000000
     0.166666672  0.666666687  0.750000000
     0.500000000  0.000000000  0.750000000
     0.500000000  0.333333343  0.750000000
     0.500000000  0.666666687  0.750000000
     0.833333313  0.000000000  0.750000000
     0.833333313  0.333333343  0.750000000
     0.833333313  0.666666687  0.750000000
     0.000000000  0.000000000  0.000000000
     0.000000000  0.333333343  0.000000000
     0.000000000  0.666666687  0.000000000
     0.333333343  0.000000000  0.000000000
     0.333333343  0.333333343  0.000000000
     0.333333343  0.666666687  0.000000000
     0.666666687  0.000000000  0.000000000
     0.666666687  0.333333343  0.000000000
     0.666666687  0.666666687  0.000000000
     0.000000000  0.166666672  0.250000000
     0.000000000  0.500000000  0.250000000
     0.000000000  0.833333313  0.250000000
     0.333333343  0.166666672  0.250000000
     0.333333343  0.500000000  0.250000000
     0.333333343  0.833333313  0.250000000
     0.666666687  0.166666672  0.250000000
     0.666666687  0.500000000  0.250000000
     0.666666687  0.833333313  0.250000000
     0.000000000  0.166666672  0.457898587
     0.000000000  0.500000000  0.457898587
     0.000000000  0.833333313  0.457898587
     0.333333343  0.166666672  0.457898587
     0.333333343  0.500000000  0.457898587
     0.333333343  0.833333313  0.457898587
     0.666666687  0.149087103  0.457898587
     0.666666687  0.500000000  0.457898587
     0.666666687  0.833333313  0.457898587
     0.166666672  0.166666672  0.707898617
     0.166666672  0.500000000  0.707898617
     0.166666672  0.833333313  0.707898617
     0.500000000  0.166666672  0.707898617
     0.500000000  0.500000000  0.707898617
     0.500000000  0.833333313  0.707898617
     0.833333313  0.166666672  0.707898617
     0.833333313  0.500000000  0.707898617
     0.833333313  0.833333313  0.707898617
     0.166666672  0.000000000  0.542101383
     0.166666672  0.333333343  0.542101383
     0.166666672  0.666666687  0.542101383
     0.500000000  0.000000000  0.542101383
     0.500000000  0.333333343  0.542101383
     0.500000000  0.666666687  0.542101383
     0.833333313  0.000000000  0.542101383
     0.833333313  0.333333343  0.542101383
     0.833333313  0.666666687  0.542101383
     0.000000000  0.000000000  0.792101383
     0.000000000  0.333333343  0.792101383
     0.000000000  0.666666687  0.792101383
     0.333333343  0.000000000  0.792101383
     0.333333343  0.333333343  0.792101383
     0.333333343  0.666666687  0.792101383
     0.666666687  0.000000000  0.792101383
     0.666666687  0.333333343  0.792101383
     0.666666687  0.666666687  0.792101383
     0.166666672  0.000000000  0.957898617
     0.166666672  0.333333343  0.957898617
     0.166666672  0.666666687  0.957898617
     0.500000000  0.000000000  0.957898617
     0.500000000  0.333333343  0.957898617
     0.500000000  0.666666687  0.957898617
     0.833333313  0.000000000  0.957898617
     0.833333313  0.333333343  0.957898617
     0.833333313  0.666666687  0.957898617
     0.000000000  0.000000000  0.207898602
     0.000000000  0.333333343  0.207898602
     0.000000000  0.666666687  0.207898602
     0.333333343  0.000000000  0.207898602
     0.333333343  0.333333343  0.207898602
     0.333333343  0.666666687  0.207898602
     0.666666687  0.000000000  0.207898602
     0.666666687  0.333333343  0.207898602
     0.666666687  0.666666687  0.207898602
     0.000000000  0.166666672  0.042101406
     0.000000000  0.500000000  0.042101406
     0.000000000  0.833333313  0.042101406
     0.333333343  0.166666672  0.042101406
     0.333333343  0.500000000  0.042101406
     0.333333343  0.833333313  0.042101406
     0.666666687  0.166666672  0.042101406
     0.666666687  0.500000000  0.042101406
     0.666666687  0.833333313  0.042101406
     0.166666672  0.166666672  0.292101413
     0.166666672  0.500000000  0.292101413
     0.166666672  0.833333313  0.292101413
     0.500000000  0.166666672  0.292101413
     0.500000000  0.500000000  0.292101413
     0.500000000  0.833333313  0.292101413
     0.833333313  0.166666672  0.292101413
     0.833333313  0.500000000  0.292101413
     0.833333313  0.833333313  0.292101413

  ion indices of the primitive-cell ions
   primitive index   ion index
                 1           1
                 2           2
                 3           3
                 4           4
                 5           5
                 6           6
                 7           7
                 8           8
                 9           9
                10          10
                11          11
                12          12
                13          13
                14          14
                15          15
                16          16
                17          17
                18          18
                19          19
                20          20
                21          21
                22          22
                23          23
                24          24
                25          25
                26          26
                27          27
                28          28
                29          29
                30          30
                31          31
                32          32
                33          33
                34          34
                35          35
                36          36
                37          37
                38          38
                39          39
                40          40
                41          41
                42          42
                43          43
                44          44
                45          45
                46          46
                47          47
                48          48
                49          49
                50          50
                51          51
                52          52
                53          53
                54          54
                55          55
                56          56
                57          57
                58          58
                59          59
                60          60
                61          61
                62          62
                63          63
                64          64
                65          65
                66          66
                67          67
                68          68
                69          69
                70          70
                71          71
                72          72
                73          73
                74          74
                75          75
                76          76
                77          77
                78          78
                79          79
                80          80
                81          81
                82          82
                83          83
                84          84
                85          85
                86          86
                87          87
                88          88
                89          89
                90          90
                91          91
                92          92
                93          93
                94          94
                95          95
                96          96
                97          97
                98          98
                99          99
               100         100
               101         101
               102         102
               103         103
               104         104
               105         105
               106         106
               107         107
               108         108

----------------------------------------------------------------------------------------



 KPOINTS: K-Points

Automatic generation of k-mesh.
 Grid dimensions read from file:
 generate k-points for:    2    2    2

 Generating k-lattice:

  Cartesian coordinates                     Fractional coordinates (reciprocal lattice)
     0.043948922  0.000000000  0.000000000     0.500000000  0.000000000  0.000000000
     0.000000000  0.043948922  0.000000000     0.000000000  0.500000000  0.000000000
     0.000000000  0.000000000  0.052058529     0.000000000  0.000000000  0.500000000

  Length of vectors
     0.043948922  0.043948922  0.052058529

  Shift w.r.t. Gamma in fractional coordinates (k-lattice)
     0.500000000  0.500000000  0.500000000


 Subroutine IBZKPT returns following result:
 ===========================================

 Found      4 irreducible k-points:

 Following reciprocal coordinates:
            Coordinates               Weight
  0.250000  0.250000  0.250000      2.000000
 -0.250000  0.250000  0.250000      2.000000
 -0.250000 -0.250000  0.250000      2.000000
  0.250000 -0.250000  0.250000      2.000000

 Following cartesian coordinates:
            Coordinates               Weight
  0.021974  0.021974  0.026029      2.000000
 -0.021974  0.021974  0.026029      2.000000
 -0.021974 -0.021974  0.026029      2.000000
  0.021974 -0.021974  0.026029      2.000000


 Subroutine IBZKPT_HF returns following result:
 ==============================================

 Found      8 k-points in 1st BZ
 the following      8 k-points will be used (e.g. in the exchange kernel)
 Following reciprocal coordinates:   # in IRBZ
  0.250000  0.250000  0.250000    0.12500000   1 t-inv F
 -0.250000  0.250000  0.250000    0.12500000   2 t-inv F
 -0.250000 -0.250000  0.250000    0.12500000   3 t-inv F
  0.250000 -0.250000  0.250000    0.12500000   4 t-inv F
 -0.250000 -0.250000 -0.250000    0.12500000   1 t-inv T
  0.250000 -0.250000 -0.250000    0.12500000   2 t-inv T
  0.250000  0.250000 -0.250000    0.12500000   3 t-inv T
 -0.250000  0.250000 -0.250000    0.12500000   4 t-inv T


--------------------------------------------------------------------------------------------------------




 Dimension of arrays:
   k-points           NKPTS =      4   k-points in BZ     NKDIM =      4   number of bands    NBANDS=    476
   number of dos      NEDOS =    301   number of ions     NIONS =    108
   non local maximal  LDIM  =      6   non local SUM 2l+1 LMDIM =     18
   total plane-waves  NPLWV = 150528
   max r-space proj   IRMAX =   1791   max aug-charges    IRDMAX=   4900
   dimension x,y,z NGX =    56 NGY =   56 NGZ =   48
   dimension x,y,z NGXF=   112 NGYF=  112 NGZF=   96
   support grid    NGXF=   112 NGYF=  112 NGZF=   96
   ions per type =              36  72
   NGX,Y,Z   is equivalent  to a cutoff of   8.18,  8.18,  8.31 a.u.
   NGXF,Y,Z  is equivalent  to a cutoff of  16.37, 16.37, 16.62 a.u.

 SYSTEM =  unknown system
 POSCAR =  Ti4 O8

 Startparameter for this run:
   NWRITE =      2    write-flag & timer
   PREC   = normal    normal or accurate (medium, high low for compatibility)
   ISTART =      0    job   : 0-new  1-cont  2-samecut
   ICHARG =      2    charge: 1-file 2-atom 10-const
   ISPIN  =      1    spin polarized calculation?
   LNONCOLLINEAR =      F non collinear calculations
   LSORBIT =      F    spin-orbit coupling
   INIWAV =      1    electr: 0-lowe 1-rand  2-diag
   LASPH  =      F    aspherical Exc in radial PAW
 Electronic Relaxation 1
   ENCUT  =  400.0 eV  29.40 Ry    5.42 a.u.  18.55 18.55 15.66*2*pi/ulx,y,z
   ENINI  =  400.0     initial cutoff
   ENAUG  =  605.4 eV  augmentation charge cutoff
   NELM   =     80;   NELMIN=  4; NELMDL= -5     # of ELM steps
   EDIFF  = 0.1E-06   stopping-criterion for ELM
   LREAL  =      T    real-space projection
   NLSPLINE    = F    spline interpolate recip. space projectors
   LCOMPAT=      F    compatible to vasp.4.4
   GGA_COMPAT  = T    GGA compatible to vasp.4.4-vasp.4.6
   LMAXPAW     = -100 max onsite density
   LMAXMIX     =    2 max onsite mixed and CHGCAR
   VOSKOWN=      0    Vosko Wilk Nusair interpolation
   ROPT   =   -0.00050  -0.00050
 Ionic relaxation
   EDIFFG = 0.1E-05   stopping-criterion for IOM
   NSW    =      0    number of steps for IOM
   NBLOCK =      1;   KBLOCK =      1    inner block; outer block
   IBRION =     -1    ionic relax: 0-MD 1-quasi-New 2-CG
   NFREE  =      0    steps in history (QN), initial steepest desc. (CG)
   ISIF   =      2    stress and relaxation
   IWAVPR =     10    prediction:  0-non 1-charg 2-wave 3-comb
   ISYM   =      0    0-nonsym 1-usesym 2-fastsym
   LCORR  =      T    Harris-Foulkes like correction to forces

   POTIM  = 0.5000    time-step for ionic-motion
   TEIN   =    0.0    initial temperature
   TEBEG  =    0.0;   TEEND  =   0.0 temperature during run
   SMASS  =  -3.00    Nose mass-parameter (am)
   estimated Nose-frequenzy (Omega)   =  0.10E-29 period in steps = 0.13E+47 mass=  -0.296E-26a.u.
   SCALEE = 1.0000    scale energy and forces
   NPACO  =    256;   APACO  = 10.0  distance and # of slots for P.C.
   PSTRESS=    0.0 pullay stress

  Mass of Ions in am
   POMASS =  47.88 16.00
  Ionic Valenz
   ZVAL   =  10.00  6.00
  Atomic Wigner-Seitz radii
   RWIGS  =  -1.00 -1.00
  virtual crystal weights
   VCA    =   1.00  1.00
   NELECT =     792.0000    total number of electrons
   NUPDOWN=      -1.0000    fix difference up-down

 DOS related values:
   EMIN   =  10.00;   EMAX   =-10.00  energy-range for DOS
   EFERMI =   0.00
   ISMEAR =     0;   SIGMA  =   0.10  broadening in eV -4-tet -1-fermi 0-gaus

 Electronic relaxation 2 (details)
   IALGO  =     38    algorithm
   LDIAG  =      T    sub-space diagonalisation (order eigenvalues)
   LSUBROT=      F    optimize rotation matrix (better conditioning)
   TURBO    =      0    0=normal 1=particle mesh
   IRESTART =      0    0=no restart 2=restart with 2 vectors
   NREBOOT  =      0    no. of reboots
   NMIN     =      0    reboot dimension
   EREF     =   0.00    reference energy to select bands
   IMIX   =      4    mixing-type and parameters
     AMIX     =   0.40;   BMIX     =  1.00
     AMIX_MAG =   1.60;   BMIX_MAG =  1.00
     AMIN     =   0.10
     WC   =   100.;   INIMIX=   1;  MIXPRE=   1;  MAXMIX= -45

 Intra band minimization:
   WEIMIN = 0.0000     energy-eigenvalue tresh-hold
   EBREAK =  0.53E-10  absolut break condition
   DEPER  =   0.30     relativ break condition

   TIME   =   0.40     timestep for ELM

  volume/ion in A,a.u.               =      11.51        77.68
  Fermi-wavevector in a.u.,A,eV,Ry     =   1.408670  2.662001 26.998745  1.984352
  Thomas-Fermi vector in A             =   2.530804

 Write flags
   LWAVE        =      F    write WAVECAR
   LDOWNSAMPLE  =      F    k-point downsampling of WAVECAR
   LCHARG       =      F    write CHGCAR
   LVTOT        =      F    write LOCPOT, total local potential
   LVHAR        =      F    write LOCPOT, Hartree potential only
   LELF         =      F    write electronic localiz. function (ELF)
   LORBIT       =      0    0 simple, 1 ext, 2 COOP (PROOUT), +10 PAW based schemes


 Dipole corrections
   LMONO  =      F    monopole corrections only (constant potential shift)
   LDIPOL =      F    correct potential (dipole corrections)
   IDIPOL =      0    1-x, 2-y, 3-z, 4-all directions
   EPSILON=  1.0000000 bulk dielectric constant

 Exchange correlation treatment:
   GGA     =    --    GGA type
   LEXCH   =     8    internal setting for exchange type
   LIBXC   =     F    Libxc
   VOSKOWN =     0    Vosko Wilk Nusair interpolation
   LHFCALC =     F    Hartree Fock is set to
   LHFONE  =     F    Hartree Fock one center treatment
   AEXX    =    0.0000 exact exchange contribution

 Linear response parameters
   LEPSILON=     T    determine dielectric tensor
   LRPA    =     F    only Hartree local field effects (RPA)
   LNABLA  =     F    use nabla operator in PAW spheres
   LVEL    =     F    velocity operator in full k-point grid
   CSHIFT  =0.1000    complex shift for real part using Kramers Kronig
   OMEGAMAX=  -1.0    maximum frequency
   DEG_THRESHOLD= 0.2000000E-02 threshold for treating states as degnerate
   RTIME   =   -0.100 relaxation time in fs
  (WPLASMAI=    0.000 imaginary part of plasma frequency in eV, 0.658/RTIME)
   DFIELD  = 0.0000000 0.0000000 0.0000000 field for delta impulse in time

  Optional k-point grid parameters
   LKPOINTS_OPT  =     F    use optional k-point grid
   KPOINTS_OPT_MODE=     1    mode for optional k-point grid

 Orbital magnetization related:
   ORBITALMAG=     F  switch on orbital magnetization
   LCHIMAG   =     F  perturbation theory with respect to B field
   DQ        =  0.001000  dq finite difference perturbation B field
   LLRAUG    =     F  two centre corrections for induced B field

 PEAD related settings:
   LPEAD      =     T    switch on PEAD
   IPEAD      =     4    finite difference order for dpsi/dk
   LCALCPOL   =     F    calculate macroscopic polarization
   LCALCEPS   =     F    calculate dielectric tensor
   EFIELD_PEAD=    0.0000    0.0000    0.0000
   SKIP_EDOTP =     F
   LRPA       =     F
   SKIP_SCF   =     F


--------------------------------------------------------------------------------------------------------


 Static calculation
 charge density and potential will be updated during run
 non-spin polarized calculation
 Variant of blocked Davidson
 Davidson routine will perform the subspace rotation
 perform sub-space diagonalisation
    after iterative eigenvector-optimisation
 modified Broyden-mixing scheme, WC =      100.0
 initial mixing is a Kerker type mixing with AMIX =  0.4000 and BMIX =      1.0000
 Hartree-type preconditioning will be used
 using additional bands           80
 real space projection scheme for non local part
 use partial core corrections
 calculate Harris-corrections to forces
   (improved forces if not selfconsistent)
 use gradient corrections
 use of overlap-Matrix (Vanderbilt PP)
 Gauss-broadening in eV      SIGMA  =   0.10


--------------------------------------------------------------------------------------------------------


  energy-cutoff  :      400.00
  volume of cell :     1243.14
      direct lattice vectors                 reciprocal lattice vectors
    11.376843452  0.000000000  0.000000000     0.087897843  0.000000000  0.000000000
     0.000000000 11.376843452  0.000000000     0.000000000  0.087897843  0.000000000
     0.000000000  0.000000000  9.604574204     0.000000000  0.000000000  0.104117057

  length of vectors
    11.376843452 11.376843452  9.604574204     0.087897843  0.087897843  0.104117057



 k-points in units of 2pi/SCALE and weight: K-Points
   0.02197446  0.02197446  0.02602926       0.250
  -0.02197446  0.02197446  0.02602926       0.250
  -0.02197446 -0.02197446  0.02602926       0.250
   0.02197446 -0.02197446  0.02602926       0.250

 k-points in reciprocal lattice and weights: K-Points
   0.25000000  0.25000000  0.25000000       0.250
  -0.25000000  0.25000000  0.25000000       0.250
  -0.25000000 -0.25000000  0.25000000       0.250
   0.25000000 -0.25000000  0.25000000       0.250

 position of ions in fractional coordinates (direct lattice)
   0.16666667  0.16666667  0.50000000
   0.16666667  0.50000000  0.50000000
   0.16666667  0.83333331  0.50000000
   0.50000000  0.16666667  0.50000000
   0.50000000  0.50000000  0.50000000
   0.50000000  0.83333331  0.50000000
   0.83333331  0.16666667  0.50000000
   0.83333331  0.50000000  0.50000000
   0.83333331  0.83333331  0.50000000
   0.16666667  0.00000000  0.75000000
   0.16666667  0.33333334  0.75000000
   0.16666667  0.66666669  0.75000000
   0.50000000  0.00000000  0.75000000
   0.50000000  0.33333334  0.75000000
   0.50000000  0.66666669  0.75000000
   0.83333331  0.00000000  0.75000000
   0.83333331  0.33333334  0.75000000
   0.83333331  0.66666669  0.75000000
   0.00000000  0.00000000  0.00000000
   0.00000000  0.33333334  0.00000000
   0.00000000  0.66666669  0.00000000
   0.33333334  0.00000000  0.00000000
   0.33333334  0.33333334  0.00000000
   0.33333334  0.66666669  0.00000000
   0.66666669  0.00000000  0.00000000
   0.66666669  0.33333334  0.00000000
   0.66666669  0.66666669  0.00000000
   0.00000000  0.16666667  0.25000000
   0.00000000  0.50000000  0.25000000
   0.00000000  0.83333331  0.25000000
   0.33333334  0.16666667  0.25000000
   0.33333334  0.50000000  0.25000000
   0.33333334  0.83333331  0.25000000
   0.66666669  0.16666667  0.25000000
   0.66666669  0.50000000  0.25000000
   0.66666669  0.83333331  0.25000000
   0.00000000  0.16666667  0.45789859
   0.00000000  0.50000000  0.45789859
   0.00000000  0.83333331  0.45789859
   0.33333334  0.16666667  0.45789859
   0.33333334  0.50000000  0.45789859
   0.33333334  0.83333331  0.45789859
   0.66666669  0.14908710  0.45789859
   0.66666669  0.50000000  0.45789859
   0.66666669  0.83333331  0.45789859
   0.16666667  0.16666667  0.70789862
   0.16666667  0.50000000  0.70789862
   0.16666667  0.83333331  0.70789862
   0.50000000  0.16666667  0.70789862
   0.50000000  0.50000000  0.70789862
   0.50000000  0.83333331  0.70789862
   0.83333331  0.16666667  0.70789862
   0.83333331  0.50000000  0.70789862
   0.83333331  0.83333331  0.70789862
   0.16666667  0.00000000  0.54210138
   0.16666667  0.33333334  0.54210138
   0.16666667  0.66666669  0.54210138
   0.50000000  0.00000000  0.54210138
   0.50000000  0.33333334  0.54210138
   0.50000000  0.66666669  0.54210138
   0.83333331  0.00000000  0.54210138
   0.83333331  0.33333334  0.54210138
   0.83333331  0.66666669  0.54210138
   0.00000000  0.00000000  0.79210138
   0.00000000  0.33333334  0.79210138
   0.00000000  0.66666669  0.79210138
   0.33333334  0.00000000  0.79210138
   0.33333334  0.33333334  0.79210138
   0.33333334  0.66666669  0.79210138
   0.66666669  0.00000000  0.79210138
   0.66666669  0.33333334  0.79210138
   0.66666669  0.66666669  0.79210138
   0.16666667  0.00000000  0.95789862
   0.16666667  0.33333334  0.95789862
   0.16666667  0.66666669  0.95789862
   0.50000000  0.00000000  0.95789862
   0.50000000  0.33333334  0.95789862
   0.50000000  0.66666669  0.95789862
   0.83333331  0.00000000  0.95789862
   0.83333331  0.33333334  0.95789862
   0.83333331  0.66666669  0.95789862
   0.00000000  0.00000000  0.20789860
   0.00000000  0.33333334  0.20789860
   0.00000000  0.66666669  0.20789860
   0.33333334  0.00000000  0.20789860
   0.33333334  0.33333334  0.20789860
   0.33333334  0.66666669  0.20789860
   0.66666669  0.00000000  0.20789860
   0.66666669  0.33333334  0.20789860
   0.66666669  0.66666669  0.20789860
   0.00000000  0.16666667  0.04210141
   0.00000000  0.50000000  0.04210141
   0.00000000  0.83333331  0.04210141
   0.33333334  0.16666667  0.04210141
   0.33333334  0.50000000  0.04210141
   0.33333334  0.83333331  0.04210141
   0.66666669  0.16666667  0.04210141
   0.66666669  0.50000000  0.04210141
   0.66666669  0.83333331  0.04210141
   0.16666667  0.16666667  0.29210141
   0.16666667  0.50000000  0.29210141
   0.16666667  0.83333331  0.29210141
   0.50000000  0.16666667  0.29210141
   0.50000000  0.50000000  0.29210141
   0.50000000  0.83333331  0.29210141
   0.83333331  0.16666667  0.29210141
   0.83333331  0.50000000  0.29210141
   0.83333331  0.83333331  0.29210141

 position of ions in cartesian coordinates  (Angst):
   1.89614063  1.89614063  4.80228710
   1.89614063  5.68842173  4.80228710
   1.89614063  9.48070265  4.80228710
   5.68842173  1.89614063  4.80228710
   5.68842173  5.68842173  4.80228710
   5.68842173  9.48070265  4.80228710
   9.48070265  1.89614063  4.80228710
   9.48070265  5.68842173  4.80228710
   9.48070265  9.48070265  4.80228710
   1.89614063  0.00000000  7.20343065
   1.89614063  3.79228126  7.20343065
   1.89614063  7.58456253  7.20343065
   5.68842173  0.00000000  7.20343065
   5.68842173  3.79228126  7.20343065
   5.68842173  7.58456253  7.20343065
   9.48070265  0.00000000  7.20343065
   9.48070265  3.79228126  7.20343065
   9.48070265  7.58456253  7.20343065
   0.00000000  0.00000000  0.00000000
   0.00000000  3.79228126  0.00000000
   0.00000000  7.58456253  0.00000000
   3.79228126  0.00000000  0.00000000
   3.79228126  3.79228126  0.00000000
   3.79228126  7.58456253  0.00000000
   7.58456253  0.00000000  0.00000000
   7.58456253  3.79228126  0.00000000
   7.58456253  7.58456253  0.00000000
   0.00000000  1.89614063  2.40114355
   0.00000000  5.68842173  2.40114355
   0.00000000  9.48070265  2.40114355
   3.79228126  1.89614063  2.40114355
   3.79228126  5.68842173  2.40114355
   3.79228126  9.48070265  2.40114355
   7.58456253  1.89614063  2.40114355
   7.58456253  5.68842173  2.40114355
   7.58456253  9.48070265  2.40114355
   0.00000000  1.89614063  4.39792096
   0.00000000  5.68842173  4.39792096
   0.00000000  9.48070265  4.39792096
   3.79228126  1.89614063  4.39792096
   3.79228126  5.68842173  4.39792096
   3.79228126  9.48070265  4.39792096
   7.58456253  1.69614063  4.39792096
   7.58456253  5.68842173  4.39792096
   7.58456253  9.48070265  4.39792096
   1.89614063  1.89614063  6.79906479
   1.89614063  5.68842173  6.79906479
   1.89614063  9.48070265  6.79906479
   5.68842173  1.89614063  6.79906479
   5.68842173  5.68842173  6.79906479
   5.68842173  9.48070265  6.79906479
   9.48070265  1.89614063  6.79906479
   9.48070265  5.68842173  6.79906479
   9.48070265  9.48070265  6.79906479
   1.89614063  0.00000000  5.20665296
   1.89614063  3.79228126  5.20665296
   1.89614063  7.58456253  5.20665296
   5.68842173  0.00000000  5.20665296
   5.68842173  3.79228126  5.20665296
   5.68842173  7.58456253  5.20665296
   9.48070265  0.00000000  5.20665296
   9.48070265  3.79228126  5.20665296
   9.48070265  7.58456253  5.20665296
   0.00000000  0.00000000  7.60779651
   0.00000000  3.79228126  7.60779651
   0.00000000  7.58456253  7.60779651
   3.79228126  0.00000000  7.60779651
   3.79228126  3.79228126  7.60779651
   3.79228126  7.58456253  7.60779651
   7.58456253  0.00000000  7.60779651
   7.58456253  3.79228126  7.60779651
   7.58456253  7.58456253  7.60779651
   1.89614063  0.00000000  9.20020834
   1.89614063  3.79228126  9.20020834
   1.89614063  7.58456253  9.20020834
   5.68842173  0.00000000  9.20020834
   5.68842173  3.79228126  9.20020834
   5.68842173  7.58456253  9.20020834
   9.48070265  0.00000000  9.20020834
   9.48070265  3.79228126  9.20020834
   9.48070265  7.58456253  9.20020834
   0.00000000  0.00000000  1.99677755
   0.00000000  3.79228126  1.99677755
   0.00000000  7.58456253  1.99677755
   3.79228126  0.00000000  1.99677755
   3.79228126  3.79228126  1.99677755
   3.79228126  7.58456253  1.99677755
   7.58456253  0.00000000  1.99677755
   7.58456253  3.79228126  1.99677755
   7.58456253  7.58456253  1.99677755
   0.00000000  1.89614063  0.40436607
   0.00000000  5.68842173  0.40436607
   0.00000000  9.48070265  0.40436607
   3.79228126  1.89614063  0.40436607
   3.79228126  5.68842173  0.40436607
   3.79228126  9.48070265  0.40436607
   7.58456253  1.89614063  0.40436607
   7.58456253  5.68842173  0.40436607
   7.58456253  9.48070265  0.40436607
   1.89614063  1.89614063  2.80550970
   1.89614063  5.68842173  2.80550970
   1.89614063  9.48070265  2.80550970
   5.68842173  1.89614063  2.80550970
   5.68842173  5.68842173  2.80550970
   5.68842173  9.48070265  2.80550970
   9.48070265  1.89614063  2.80550970
   9.48070265  5.68842173  2.80550970
   9.48070265  9.48070265  2.80550970



--------------------------------------------------------------------------------------------------------


 k-point   1 :   0.2500 0.2500 0.2500  plane waves:   22590
 k-point   2 :  -0.2500 0.2500 0.2500  plane waves:   22590
 k-point   3 :  -0.2500-0.2500 0.2500  plane waves:   22590
 k-point   4 :   0.2500-0.2500 0.2500  plane waves:   22590

 maximum and minimum number of plane-waves per node :     22590    22590

 maximum number of plane-waves:     22590
 maximum index in each direction:
   IXMAX=   18   IYMAX=   18   IZMAX=   15
   IXMIN=  -18   IYMIN=  -18   IZMIN=  -15


 serial   3D FFT for wavefunctions
 parallel 3D FFT for charge:
    minimum data exchange during FFTs selected (reduces bandwidth)


 total amount of memory used by VASP MPI-rank0   266725. kBytes
=======================================================================

   base      :      30000. kBytes
   nonlr-proj:      19556. kBytes
   fftplans  :      10927. kBytes
   grid      :      23181. kBytes
   one-center:       1679. kBytes
   wavefun   :     181382. kBytes

     INWAV:  cpu time      0.0002: real time      0.0005
 Broyden mixing: mesh for mixing (old mesh)
   NGX = 37   NGY = 37   NGZ = 31
  (NGX  =112   NGY  =112   NGZ  = 96)
  gives a total of  42439 points

 initial charge density was supplied:
 charge density of overlapping atoms calculated
 number of electron     792.0000000 magnetization
 keeping initial charge density in first step


--------------------------------------------------------------------------------------------------------


 Maximum index for non-local projection operator         1743
 Maximum index for augmentation-charges         1189 (set IRDMAX)


--------------------------------------------------------------------------------------------------------


 First call to EWALD:  gamma=   0.165
 Maximum number of real-space cells 3x 3x 3
 Maximum number of reciprocal cells 3x 3x 3

    FEWALD:  cpu time      0.0033: real time      0.0035


--------------------------------------- Iteration      1(   1)  ---------------------------------------


    POTLOK:  cpu time      0.2010: real time      0.2030
    SETDIJ:  cpu time      0.0110: real time      0.0112
     EDDAV:  cpu time     14.1557: real time     14.4837
       DOS:  cpu time      0.0040: real time      0.0040
    --------------------------------------------
      LOOP:  cpu time     14.3717: real time     14.7019

 eigenvalue-minimisations  :  3824
 total energy-change (2. order) : 0.1155912E+05  (-0.3305513E+05)
 number of electron     792.0000000 magnetization
 augmentation part      792.0000000 magnetization

 Free energy of the ion-electron system (eV)
  ---------------------------------------------------
  alpha Z        PSCENC =      3563.47650690
  Ewald energy   TEWEN  =    -48592.14486740
  -Hartree energ DENC   =    -18838.40726375
  -exchange      EXHF   =         0.00000000
  -V(xc)+E(xc)   XCENC  =      3286.82052550
  PAW double counting   =     54431.09303398   -54537.79254336
  entropy T*S    EENTRO =        -0.14595031
  eigenvalues    EBANDS =      3589.82181940
  atomic energy  EATOM  =     68656.39924158
  Solvation  Ediel_sol  =         0.00000000
  ---------------------------------------------------
  free energy    TOTEN  =     11559.12050255 eV

  energy without entropy =    11559.26645286  energy(sigma->0) =    11559.19347770


--------------------------------------------------------------------------------------------------------




--------------------------------------- Iteration      1(   2)  ---------------------------------------


     EDDAV:  cpu time     15.8437: real time     16.2439
       DOS:  cpu time      0.0009: real time      0.0009
    --------------------------------------------
      LOOP:  cpu time     15.8446: real time     16.2448

 eigenvalue-minimisations  :  3808
 total energy-change (2. order) :-0.9986411E+04  (-0.9555914E+04)
 number of electron     792.0000000 magnetization
 augmentation part      792.0000000 magnetization

 Free energy of the ion-electron system (eV)
  ---------------------------------------------------
  alpha Z        PSCENC =      3563.47650690
  Ewald energy   TEWEN  =    -48592.14486740
  -Hartree energ DENC   =    -18838.40726375
  -exchange      EXHF   =         0.00000000
  -V(xc)+E(xc)   XCENC  =      3286.82052550
  PAW double counting   =     54431.09303398   -54537.79254336
  entropy T*S    EENTRO =        -0.28731949
  eigenvalues    EBANDS =     -6396.44770039
  atomic energy  EATOM  =     68656.39924158
  Solvation  Ediel_sol  =         0.00000000
  ---------------------------------------------------
  free energy    TOTEN  =      1572.70961358 eV

  energy without entropy =     1572.99693307  energy(sigma->0) =     1572.85327332


--------------------------------------------------------------------------------------------------------




--------------------------------------- Iteration      1(   3)  ---------------------------------------


     EDDAV:  cpu time     18.9597: real time     19.0906
       DOS:  cpu time      0.0007: real time      0.0007
    --------------------------------------------
      LOOP:  cpu time     18.9605: real time     19.0913

 eigenvalue-minimisations  :  4416
 total energy-change (2. order) :-0.2641496E+04  (-0.2569340E+04)
 number of electron     792.0000000 magnetization
 augmentation part      792.0000000 magnetization

 Free energy of the ion-electron system (eV)
  ---------------------------------------------------
  alpha Z        PSCENC =      3563.47650690
  Ewald energy   TEWEN  =    -48592.14486740
  -Hartree energ DENC   =    -18838.40726375
  -exchange      EXHF   =         0.00000000
  -V(xc)+E(xc)   XCENC  =      3286.82052550
  PAW double counting   =     54431.09303398   -54537.79254336
  entropy T*S    EENTRO =        -0.00000000
  eigenvalues    EBANDS =     -9038.23096060
  atomic energy  EATOM  =     68656.39924158
  Solvation  Ediel_sol  =         0.00000000
  ---------------------------------------------------
  free energy    TOTEN  =     -1068.78632714 eV

  energy without entropy =    -1068.78632714  energy(sigma->0) =    -1068.78632714


--------------------------------------------------------------------------------------------------------




--------------------------------------- Iteration      1(   4)  ---------------------------------------


     EDDAV:  cpu time     21.8737: real time     22.0149
       DOS:  cpu time      0.0007: real time      0.0007
    --------------------------------------------
      LOOP:  cpu time     21.8744: real time     22.0156

 eigenvalue-minimisations  :  5080
 total energy-change (2. order) :-0.2046951E+03  (-0.2036069E+03)
 number of electron     792.0000000 magnetization
 augmentation part      792.0000000 magnetization

 Free energy of the ion-electron system (eV)
  ---------------------------------------------------
  alpha Z        PSCENC =      3563.47650690
  Ewald energy   TEWEN  =    -48592.14486740
  -Hartree energ DENC   =    -18838.40726375
  -exchange      EXHF   =         0.00000000
  -V(xc)+E(xc)   XCENC  =      3286.82052550
  PAW double counting   =     54431.09303398   -54537.79254336
  entropy T*S    EENTRO =        -0.00000000
  eigenvalues    EBANDS =     -9242.92610008
  atomic energy  EATOM  =     68656.39924158
  Solvation  Ediel_sol  =         0.00000000
  ---------------------------------------------------
  free energy    TOTEN  =     -1273.48146662 eV

  energy without entropy =    -1273.48146662  energy(sigma->0) =    -1273.48146662


--------------------------------------------------------------------------------------------------------




--------------------------------------- Iteration      1(   5)  ---------------------------------------


     EDDAV:  cpu time     21.7301: real time     21.8700
       DOS:  cpu time      0.0007: real time      0.0007
    CHARGE:  cpu time      0.2393: real time      0.2425
    MIXING:  cpu time      0.0178: real time      0.0180
    --------------------------------------------
      LOOP:  cpu time     21.9878: real time     22.1311

 eigenvalue-minimisations  :  4960
 total energy-change (2. order) :-0.5239075E+01  (-0.5227618E+01)
 number of electron     792.0003058 magnetization
 augmentation part      202.2316818 magnetization

 Broyden mixing:
  rms(total) = 0.17228E+02    rms(broyden)= 0.17227E+02
  rms(prec ) = 0.19167E+02
  weight for this iteration     100.00

 Free energy of the ion-electron system (eV)
  ---------------------------------------------------
  alpha Z        PSCENC =      3563.47650690
  Ewald energy   TEWEN  =    -48592.14486740
  -Hartree energ DENC   =    -18838.40726375
  -exchange      EXHF   =         0.00000000
  -V(xc)+E(xc)   XCENC  =      3286.82052550
  PAW double counting   =     54431.09303398   -54537.79254336
  entropy T*S    EENTRO =        -0.00000000
  eigenvalues    EBANDS =     -9248.16517534
  atomic energy  EATOM  =     68656.39924158
  Solvation  Ediel_sol  =         0.00000000
  ---------------------------------------------------
  free energy    TOTEN  =     -1278.72054189 eV

  energy without entropy =    -1278.72054189  energy(sigma->0) =    -1278.72054189


--------------------------------------------------------------------------------------------------------




--------------------------------------- Iteration      1(   6)  ---------------------------------------


    POTLOK:  cpu time      0.1789: real time      0.1804
    SETDIJ:  cpu time      0.0423: real time      0.0426
     EDDAV:  cpu time     21.7452: real time     21.8866
       DOS:  cpu time      0.0007: real time      0.0007
    CHARGE:  cpu time      0.2452: real time      0.2493
    MIXING:  cpu time      0.0117: real time      0.0121
    --------------------------------------------
      LOOP:  cpu time     22.2240: real time     22.3718

 eigenvalue-minimisations  :  4976
 total energy-change (2. order) : 0.3023799E+03  (-0.1975322E+03)
 number of electron     792.0002465 magnetization
 augmentation part      214.1125119 magnetization

 Broyden mixing:
  rms(total) = 0.53001E+01    rms(broyden)= 0.52951E+01
  rms(prec ) = 0.58281E+01
  weight for this iteration     100.00

 eigenvalues of (default mixing * dielectric matrix)
  average eigenvalue GAMMA=   0.9646
  0.9646

 Free energy of the ion-electron system (eV)
  ---------------------------------------------------
  alpha Z        PSCENC =      3563.47650690
  Ewald energy   TEWEN  =    -48592.14486740
  -Hartree energ DENC   =    -19063.01091715
  -exchange      EXHF   =         0.00000000
  -V(xc)+E(xc)   XCENC  =      3337.80999493
  PAW double counting   =     68236.26763347   -68468.52550772
  entropy T*S    EENTRO =        -0.00000000
  eigenvalues    EBANDS =     -8646.61272208
  atomic energy  EATOM  =     68656.39924158
  Solvation  Ediel_sol  =         0.00000000
  ---------------------------------------------------
  free energy    TOTEN  =      -976.34063748 eV

  energy without entropy =     -976.34063748  energy(sigma->0) =     -976.34063748


--------------------------------------------------------------------------------------------------------




--------------------------------------- Iteration      1(   7)  ---------------------------------------


    POTLOK:  cpu time      0.2172: real time      0.2192
    SETDIJ:  cpu time      0.0086: real time      0.0088
     EDDAV:  cpu time     22.5435: real time     22.6921
       DOS:  cpu time      0.0006: real time      0.0006
    CHARGE:  cpu time      0.2444: real time      0.2470
    MIXING:  cpu time      0.0178: real time      0.0192
    --------------------------------------------
      LOOP:  cpu time     23.0321: real time     23.1867

 eigenvalue-minimisations  :  5328
 total energy-change (2. order) : 0.4320793E+01  (-0.2853719E+02)
 number of electron     792.0002655 magnetization
 augmentation part      207.3359918 magnetization

 Broyden mixing:
  rms(total) = 0.45887E+01    rms(broyden)= 0.45884E+01
  rms(prec ) = 0.47812E+01
  weight for this iteration     100.00

 eigenvalues of (default mixing * dielectric matrix)
  average eigenvalue GAMMA=   1.8487
  0.7377  2.9598

 Free energy of the ion-electron system (eV)
  ---------------------------------------------------
  alpha Z        PSCENC =      3563.47650690
  Ewald energy   TEWEN  =    -48592.14486740
  -Hartree energ DENC   =    -18905.32351711
  -exchange      EXHF   =         0.00000000
  -V(xc)+E(xc)   XCENC  =      3318.56478327
  PAW double counting   =     75222.66398886   -75465.94923237
  entropy T*S    EENTRO =        -0.00000000
  eigenvalues    EBANDS =     -8769.70674850
  atomic energy  EATOM  =     68656.39924158
  Solvation  Ediel_sol  =         0.00000000
  ---------------------------------------------------
  free energy    TOTEN  =      -972.01984477 eV

  energy without entropy =     -972.01984477  energy(sigma->0) =     -972.01984477


--------------------------------------------------------------------------------------------------------




--------------------------------------- Iteration      1(   8)  ---------------------------------------


    POTLOK:  cpu time      0.2009: real time      0.2029
    SETDIJ:  cpu time      0.0550: real time      0.0552
     EDDAV:  cpu time     22.3060: real time     22.4503
       DOS:  cpu time      0.0006: real time      0.0006
    CHARGE:  cpu time      0.2344: real time      0.2372
    MIXING:  cpu time      0.0201: real time      0.0202
    --------------------------------------------
      LOOP:  cpu time     22.8169: real time     22.9664

 eigenvalue-minimisations  :  5032
 total energy-change (2. order) :-0.1972088E+00  (-0.1111990E+02)
 number of electron     792.0002589 magnetization
 augmentation part      215.6066767 magnetization

 Broyden mixing:
  rms(total) = 0.33837E+01    rms(broyden)= 0.33835E+01
  rms(prec ) = 0.36847E+01
  weight for this iteration     100.00

 eigenvalues of (default mixing * dielectric matrix)
  average eigenvalue GAMMA=   1.2336
  2.1701  0.9311  0.5996

 Free energy of the ion-electron system (eV)
  ---------------------------------------------------
  alpha Z        PSCENC =      3563.47650690
  Ewald energy   TEWEN  =    -48592.14486740
  -Hartree energ DENC   =    -18527.37222450
  -exchange      EXHF   =         0.00000000
  -V(xc)+E(xc)   XCENC  =      3303.74419531
  PAW double counting   =     93863.70911340   -94179.50966675
  entropy T*S    EENTRO =        -0.00000000
  eigenvalues    EBANDS =     -9060.51935214
  atomic energy  EATOM  =     68656.39924158
  Solvation  Ediel_sol  =         0.00000000
  ---------------------------------------------------
  free energy    TOTEN  =      -972.21705359 eV

  energy without entropy =     -972.21705359  energy(sigma->0) =     -972.21705359


--------------------------------------------------------------------------------------------------------




--------------------------------------- Iteration      1(   9)  ---------------------------------------


    POTLOK:  cpu time      0.1880: real time      0.1916
    SETDIJ:  cpu time      0.0501: real time      0.0503
     EDDAV:  cpu time     22.3310: real time     22.4772
       DOS:  cpu time      0.0006: real time      0.0006
    CHARGE:  cpu time      0.2456: real time      0.2482
    MIXING:  cpu time      0.0122: real time      0.0124
    --------------------------------------------
      LOOP:  cpu time     22.8275: real time     22.9805

 eigenvalue-minimisations  :  5088
 total energy-change (2. order) : 0.5654506E+01  (-0.3515318E+01)
 number of electron     792.0002637 magnetization
 augmentation part      211.4556571 magnetization

 Broyden mixing:
  rms(total) = 0.24193E+00    rms(broyden)= 0.24115E+00
  rms(prec ) = 0.26567E+00
  weight for this iteration     100.00

 eigenvalues of (default mixing * dielectric matrix)
  average eigenvalue GAMMA=   1.3469
  2.2825  1.3785  1.1076  0.6192

 Free energy of the ion-electron system (eV)
  ---------------------------------------------------
  alpha Z        PSCENC =      3563.47650690
  Ewald energy   TEWEN  =    -48592.14486740
  -Hartree energ DENC   =    -18673.79038638
  -exchange      EXHF   =         0.00000000
  -V(xc)+E(xc)   XCENC  =      3308.70729919
  PAW double counting   =     88535.98534024   -88832.28058638
  entropy T*S    EENTRO =        -0.00000000
  eigenvalues    EBANDS =     -8932.91509493
  atomic energy  EATOM  =     68656.39924158
  Solvation  Ediel_sol  =         0.00000000
  ---------------------------------------------------
  free energy    TOTEN  =      -966.56254718 eV

  energy without entropy =     -966.56254718  energy(sigma->0) =     -966.56254718


--------------------------------------------------------------------------------------------------------




--------------------------------------- Iteration      1(  10)  ---------------------------------------


    POTLOK:  cpu time      0.2296: real time      0.2317
    SETDIJ:  cpu time      0.0086: real time      0.0087
     EDDAV:  cpu time     22.2475: real time     22.3990
       DOS:  cpu time      0.0006: real time      0.0006
    CHARGE:  cpu time      0.2401: real time      0.2433
    MIXING:  cpu time      0.0198: real time      0.0199
    --------------------------------------------
      LOOP:  cpu time     22.7464: real time     22.9033

 eigenvalue-minimisations  :  5224
 total energy-change (2. order) :-0.1010331E+00  (-0.1262236E+00)
 number of electron     792.0002623 magnetization
 augmentation part      211.6398075 magnetization

 Broyden mixing:
  rms(total) = 0.28887E+00    rms(broyden)= 0.28884E+00
  rms(prec ) = 0.33210E+00
  weight for this iteration     100.00

 eigenvalues of (default mixing * dielectric matrix)
  average eigenvalue GAMMA=   1.3645
  2.5422  1.8556  0.9746  0.8547  0.5956

 Free energy of the ion-electron system (eV)
  ---------------------------------------------------
  alpha Z        PSCENC =      3563.47650690
  Ewald energy   TEWEN  =    -48592.14486740
  -Hartree energ DENC   =    -18719.55341664
  -exchange      EXHF   =         0.00000000
  -V(xc)+E(xc)   XCENC  =      3312.12747469
  PAW double counting   =     89025.28541553   -89326.83647672
  entropy T*S    EENTRO =        -0.00000000
  eigenvalues    EBANDS =     -8885.41745821
  atomic energy  EATOM  =     68656.39924158
  Solvation  Ediel_sol  =         0.00000000
  ---------------------------------------------------
  free energy    TOTEN  =      -966.66358028 eV

  energy without entropy =     -966.66358028  energy(sigma->0) =     -966.66358028


--------------------------------------------------------------------------------------------------------




--------------------------------------- Iteration      1(  11)  ---------------------------------------


    POTLOK:  cpu time      0.1917: real time      0.1937
    SETDIJ:  cpu time      0.0606: real time      0.0609
     EDDAV:  cpu time     22.7826: real time     22.9313
       DOS:  cpu time      0.0007: real time      0.0007
    CHARGE:  cpu time      0.2554: real time      0.2570
    MIXING:  cpu time      0.0196: real time      0.0197
    --------------------------------------------
      LOOP:  cpu time     23.3106: real time     23.4633

 eigenvalue-minimisations  :  5344
 total energy-change (2. order) : 0.5447207E-01  (-0.2880234E-01)
 number of electron     792.0002627 magnetization
 augmentation part      211.3087737 magnetization

 Broyden mixing:
  rms(total) = 0.70569E-01    rms(broyden)= 0.70538E-01
  rms(prec ) = 0.86899E-01
  weight for this iteration     100.00

 eigenvalues of (default mixing * dielectric matrix)
  average eigenvalue GAMMA=   1.2863
  2.5538  1.6463  1.2179  1.0969  0.5724  0.6308

 Free energy of the ion-electron system (eV)
  ---------------------------------------------------
  alpha Z        PSCENC =      3563.47650690
  Ewald energy   TEWEN  =    -48592.14486740
  -Hartree energ DENC   =    -18736.55161032
  -exchange      EXHF   =         0.00000000
  -V(xc)+E(xc)   XCENC  =      3312.88793290
  PAW double counting   =     89176.92188262   -89479.38954329
  entropy T*S    EENTRO =        -0.00000000
  eigenvalues    EBANDS =     -8868.20865119
  atomic energy  EATOM  =     68656.39924158
  Solvation  Ediel_sol  =         0.00000000
  ---------------------------------------------------
  free energy    TOTEN  =      -966.60910821 eV

  energy without entropy =     -966.60910821  energy(sigma->0) =     -966.60910821


--------------------------------------------------------------------------------------------------------




--------------------------------------- Iteration      1(  12)  ---------------------------------------


    POTLOK:  cpu time      0.2532: real time      0.2554
    SETDIJ:  cpu time      0.0092: real time      0.0092
     EDDAV:  cpu time     22.9540: real time     23.1030
       DOS:  cpu time      0.0006: real time      0.0006
    CHARGE:  cpu time      0.2493: real time      0.2507
    MIXING:  cpu time      0.0224: real time      0.0225
    --------------------------------------------
      LOOP:  cpu time     23.4886: real time     23.6414

 eigenvalue-minimisations  :  5344
 total energy-change (2. order) : 0.1626904E-02  (-0.1144791E-01)
 number of electron     792.0002631 magnetization
 augmentation part      211.1872502 magnetization

 Broyden mixing:
  rms(total) = 0.46830E-01    rms(broyden)= 0.46767E-01
  rms(prec ) = 0.55639E-01
  weight for this iteration     100.00

 eigenvalues of (default mixing * dielectric matrix)
  average eigenvalue GAMMA=   1.2683
  2.5836  1.7252  1.7252  0.9635  0.7435  0.5684  0.5684

 Free energy of the ion-electron system (eV)
  ---------------------------------------------------
  alpha Z        PSCENC =      3563.47650690
  Ewald energy   TEWEN  =    -48592.14486740
  -Hartree energ DENC   =    -18733.48931726
  -exchange      EXHF   =         0.00000000
  -V(xc)+E(xc)   XCENC  =      3312.50752709
  PAW double counting   =     89212.64965221   -89514.54638629
  entropy T*S    EENTRO =        -0.00000000
  eigenvalues    EBANDS =     -8871.45983813
  atomic energy  EATOM  =     68656.39924158
  Solvation  Ediel_sol  =         0.00000000
  ---------------------------------------------------
  free energy    TOTEN  =      -966.60748130 eV

  energy without entropy =     -966.60748130  energy(sigma->0) =     -966.60748130


--------------------------------------------------------------------------------------------------------




--------------------------------------- Iteration      1(  13)  ---------------------------------------


    POTLOK:  cpu time      0.1943: real time      0.1961
    SETDIJ:  cpu time      0.0610: real time      0.0613
     EDDAV:  cpu time     22.6701: real time     22.8168
       DOS:  cpu time      0.0006: real time      0.0006
    CHARGE:  cpu time      0.2453: real time      0.2466
    MIXING:  cpu time      0.0212: real time      0.0214
    --------------------------------------------
      LOOP:  cpu time     23.1924: real time     23.3428

 eigenvalue-minimisations  :  5304
 total energy-change (2. order) : 0.1105172E-02  (-0.1095235E-02)
 number of electron     792.0002630 magnetization
 augmentation part      211.2282687 magnetization

 Broyden mixing:
  rms(total) = 0.20668E-01    rms(broyden)= 0.20665E-01
  rms(prec ) = 0.24322E-01
  weight for this iteration     100.00

 eigenvalues of (default mixing * dielectric matrix)
  average eigenvalue GAMMA=   1.2476
  2.5336  1.7979  1.7979  1.0164  0.8273  0.8273  0.6096  0.5710

 Free energy of the ion-electron system (eV)
  ---------------------------------------------------
  alpha Z        PSCENC =      3563.47650690
  Ewald energy   TEWEN  =    -48592.14486740
  -Hartree energ DENC   =    -18734.06166427
  -exchange      EXHF   =         0.00000000
  -V(xc)+E(xc)   XCENC  =      3312.57475883
  PAW double counting   =     89228.45783994   -89530.23529620
  entropy T*S    EENTRO =        -0.00000000
  eigenvalues    EBANDS =     -8871.07289550
  atomic energy  EATOM  =     68656.39924158
  Solvation  Ediel_sol  =         0.00000000
  ---------------------------------------------------
  free energy    TOTEN  =      -966.60637613 eV

  energy without entropy =     -966.60637613  energy(sigma->0) =     -966.60637613


--------------------------------------------------------------------------------------------------------




--------------------------------------- Iteration      1(  14)  ---------------------------------------


    POTLOK:  cpu time      0.1895: real time      0.1913
    SETDIJ:  cpu time      0.0626: real time      0.0629
     EDDAV:  cpu time     22.9050: real time     23.0538
       DOS:  cpu time      0.0007: real time      0.0007
    CHARGE:  cpu time      0.2490: real time      0.2515
    MIXING:  cpu time      0.0216: real time      0.0218
    --------------------------------------------
      LOOP:  cpu time     23.4284: real time     23.5818

 eigenvalue-minimisations  :  5344
 total energy-change (2. order) :-0.2228002E-03  (-0.1548931E-03)
 number of electron     792.0002630 magnetization
 augmentation part      211.2105233 magnetization

 Broyden mixing:
  rms(total) = 0.18979E-01    rms(broyden)= 0.18977E-01
  rms(prec ) = 0.22643E-01
  weight for this iteration     100.00

 eigenvalues of (default mixing * dielectric matrix)
  average eigenvalue GAMMA=   1.2669
  2.4270  2.4270  1.8796  0.9998  0.9042  0.9042  0.7272  0.5883  0.5450

 Free energy of the ion-electron system (eV)
  ---------------------------------------------------
  alpha Z        PSCENC =      3563.47650690
  Ewald energy   TEWEN  =    -48592.14486740
  -Hartree energ DENC   =    -18736.09374389
  -exchange      EXHF   =         0.00000000
  -V(xc)+E(xc)   XCENC  =      3312.67970983
  PAW double counting   =     89184.62018001   -89486.19695806
  entropy T*S    EENTRO =        -0.00000000
  eigenvalues    EBANDS =     -8869.34666791
  atomic energy  EATOM  =     68656.39924158
  Solvation  Ediel_sol  =         0.00000000
  ---------------------------------------------------
  free energy    TOTEN  =      -966.60659893 eV

  energy without entropy =     -966.60659893  energy(sigma->0) =     -966.60659893


--------------------------------------------------------------------------------------------------------




--------------------------------------- Iteration      1(  15)  ---------------------------------------


    POTLOK:  cpu time      0.1978: real time      0.1997
    SETDIJ:  cpu time      0.0592: real time      0.0594
     EDDAV:  cpu time     22.5620: real time     22.7097
       DOS:  cpu time      0.0007: real time      0.0007
    CHARGE:  cpu time      0.2571: real time      0.2586
    MIXING:  cpu time      0.0204: real time      0.0206
    --------------------------------------------
      LOOP:  cpu time     23.0972: real time     23.2487

 eigenvalue-minimisations  :  5336
 total energy-change (2. order) : 0.1633881E-03  (-0.2170696E-03)
 number of electron     792.0002629 magnetization
 augmentation part      211.2298552 magnetization

 Broyden mixing:
  rms(total) = 0.50946E-02    rms(broyden)= 0.50886E-02
  rms(prec ) = 0.61198E-02
  weight for this iteration     100.00

 eigenvalues of (default mixing * dielectric matrix)
  average eigenvalue GAMMA=   1.2533
  2.7357  2.5739  1.8526  0.9974  0.9974  0.8140  0.8140  0.6233  0.5625  0.5625

 Free energy of the ion-electron system (eV)
  ---------------------------------------------------
  alpha Z        PSCENC =      3563.47650690
  Ewald energy   TEWEN  =    -48592.14486740
  -Hartree energ DENC   =    -18737.06626625
  -exchange      EXHF   =         0.00000000
  -V(xc)+E(xc)   XCENC  =      3312.75000526
  PAW double counting   =     89171.65507021   -89473.10620486
  entropy T*S    EENTRO =        -0.00000000
  eigenvalues    EBANDS =     -8868.56992098
  atomic energy  EATOM  =     68656.39924158
  Solvation  Ediel_sol  =         0.00000000
  ---------------------------------------------------
  free energy    TOTEN  =      -966.60643554 eV

  energy without entropy =     -966.60643554  energy(sigma->0) =     -966.60643554


--------------------------------------------------------------------------------------------------------




--------------------------------------- Iteration      1(  16)  ---------------------------------------


    POTLOK:  cpu time      0.2522: real time      0.2547
    SETDIJ:  cpu time      0.0111: real time      0.0119
     EDDAV:  cpu time     22.4563: real time     22.6072
       DOS:  cpu time      0.0008: real time      0.0008
    CHARGE:  cpu time      0.2467: real time      0.2481
    MIXING:  cpu time      0.0223: real time      0.0228
    --------------------------------------------
      LOOP:  cpu time     22.9893: real time     23.1454

 eigenvalue-minimisations  :  5280
 total energy-change (2. order) :-0.2184283E-04  (-0.5572647E-04)
 number of electron     792.0002629 magnetization
 augmentation part      211.2396340 magnetization

 Broyden mixing:
  rms(total) = 0.52686E-02    rms(broyden)= 0.52655E-02
  rms(prec ) = 0.62222E-02
  weight for this iteration     100.00

 eigenvalues of (default mixing * dielectric matrix)
  average eigenvalue GAMMA=   1.2365
  2.7904  2.5358  1.5644  1.4053  0.9007  0.9007  0.9358  0.8342  0.6049  0.6049
  0.5244

 Free energy of the ion-electron system (eV)
  ---------------------------------------------------
  alpha Z        PSCENC =      3563.47650690
  Ewald energy   TEWEN  =    -48592.14486740
  -Hartree energ DENC   =    -18737.37527319
  -exchange      EXHF   =         0.00000000
  -V(xc)+E(xc)   XCENC  =      3312.77629585
  PAW double counting   =     89173.34002208   -89474.77901682
  entropy T*S    EENTRO =        -0.00000000
  eigenvalues    EBANDS =     -8868.29936639
  atomic energy  EATOM  =     68656.39924158
  Solvation  Ediel_sol  =         0.00000000
  ---------------------------------------------------
  free energy    TOTEN  =      -966.60645739 eV

  energy without entropy =     -966.60645739  energy(sigma->0) =     -966.60645739


--------------------------------------------------------------------------------------------------------




--------------------------------------- Iteration      1(  17)  ---------------------------------------


    POTLOK:  cpu time      0.2062: real time      0.2082
    SETDIJ:  cpu time      0.0479: real time      0.0492
     EDDAV:  cpu time     22.8324: real time     22.9822
       DOS:  cpu time      0.0006: real time      0.0006
    CHARGE:  cpu time      0.2426: real time      0.2440
    MIXING:  cpu time      0.0249: real time      0.0251
    --------------------------------------------
      LOOP:  cpu time     23.3546: real time     23.5093

 eigenvalue-minimisations  :  5336
 total energy-change (2. order) : 0.1762730E-04  (-0.2030251E-04)
 number of electron     792.0002629 magnetization
 augmentation part      211.2336327 magnetization

 Broyden mixing:
  rms(total) = 0.14107E-02    rms(broyden)= 0.14092E-02
  rms(prec ) = 0.15965E-02
  weight for this iteration     100.00

 eigenvalues of (default mixing * dielectric matrix)
  average eigenvalue GAMMA=   1.2056
  2.8501  2.4280  1.5853  1.5853  0.9973  0.8579  0.8579  0.7959  0.7959  0.6045
  0.5632  0.5460

 Free energy of the ion-electron system (eV)
  ---------------------------------------------------
  alpha Z        PSCENC =      3563.47650690
  Ewald energy   TEWEN  =    -48592.14486740
  -Hartree energ DENC   =    -18737.47263271
  -exchange      EXHF   =         0.00000000
  -V(xc)+E(xc)   XCENC  =      3312.77520416
  PAW double counting   =     89171.38429635   -89472.83213029
  entropy T*S    EENTRO =        -0.00000000
  eigenvalues    EBANDS =     -8868.19205835
  atomic energy  EATOM  =     68656.39924158
  Solvation  Ediel_sol  =         0.00000000
  ---------------------------------------------------
  free energy    TOTEN  =      -966.60643976 eV

  energy without entropy =     -966.60643976  energy(sigma->0) =     -966.60643976


--------------------------------------------------------------------------------------------------------




--------------------------------------- Iteration      1(  18)  ---------------------------------------


    POTLOK:  cpu time      0.1802: real time      0.1821
    SETDIJ:  cpu time      0.0698: real time      0.0714
     EDDAV:  cpu time     23.0277: real time     23.1739
       DOS:  cpu time      0.0006: real time      0.0006
    CHARGE:  cpu time      0.2481: real time      0.2495
    MIXING:  cpu time      0.0251: real time      0.0252
    --------------------------------------------
      LOOP:  cpu time     23.5514: real time     23.7026

 eigenvalue-minimisations  :  5344
 total energy-change (2. order) :-0.5441849E-05  (-0.1692517E-05)
 number of electron     792.0002629 magnetization
 augmentation part      211.2353723 magnetization

 Broyden mixing:
  rms(total) = 0.15750E-02    rms(broyden)= 0.15748E-02
  rms(prec ) = 0.18851E-02
  weight for this iteration     100.00

 eigenvalues of (default mixing * dielectric matrix)
  average eigenvalue GAMMA=   1.2281
  2.9252  2.3649  1.8250  1.8250  0.9036  0.9036  0.9991  0.9269  0.9269  0.6730
  0.5868  0.5868  0.5185

 Free energy of the ion-electron system (eV)
  ---------------------------------------------------
  alpha Z        PSCENC =      3563.47650690
  Ewald energy   TEWEN  =    -48592.14486740
  -Hartree energ DENC   =    -18737.39066656
  -exchange      EXHF   =         0.00000000
  -V(xc)+E(xc)   XCENC  =      3312.77049043
  PAW double counting   =     89173.97329028   -89475.43378249
[...]
      7.58456      3.79228      1.99678    -0.00001  0.01714 -2.89128 ( -0.63498  6.00000)
      7.58456      7.58456      1.99678    -0.00001  0.01353 -2.89443 ( -0.63484  6.00000)
      0.00000      1.89614      0.40437     0.00018 -0.00284 -2.89550 ( -0.63482  6.00000)
      0.00000      5.68842      0.40437     0.00005  0.00125 -2.89328 ( -0.63480  6.00000)
      0.00000      9.48070      0.40437     0.00003  0.00187 -2.89610 ( -0.63483  6.00000)
      3.79228      1.89614      0.40437    -0.00021 -0.00290 -2.89555 ( -0.63484  6.00000)
      3.79228      5.68842      0.40437    -0.00010  0.00126 -2.89385 ( -0.63481  6.00000)
      3.79228      9.48070      0.40437    -0.00005  0.00191 -2.89617 ( -0.63484  6.00000)
      7.58456      1.89614      0.40437     0.00000  0.01449 -2.89830 ( -0.63478  6.00000)
      7.58456      5.68842      0.40437     0.00002  0.00344 -2.89554 ( -0.63481  6.00000)
      7.58456      9.48070      0.40437    -0.00001  0.00108 -2.89354 ( -0.63484  6.00000)
      1.89614      1.89614      2.80551    -0.00032  0.00015 -2.89546 ( -0.63484  6.00000)
      1.89614      5.68842      2.80551    -0.00027  0.00005 -2.89642 ( -0.63482  6.00000)
      1.89614      9.48070      2.80551    -0.00031 -0.00001 -2.89219 ( -0.63485  6.00000)
      5.68842      1.89614      2.80551    -0.00768  0.00059 -2.89406 ( -0.63473  6.00000)
      5.68842      5.68842      2.80551    -0.00057  0.00009 -2.89507 ( -0.63480  6.00000)
      5.68842      9.48070      2.80551     0.00012 -0.00015 -2.89278 ( -0.63481  6.00000)
      9.48070      1.89614      2.80551     0.00799  0.00056 -2.89415 ( -0.63476  6.00000)
      9.48070      5.68842      2.80551     0.00084  0.00011 -2.89566 ( -0.63483  6.00000)
      9.48070      9.48070      2.80551     0.00021 -0.00012 -2.89289 ( -0.63484  6.00000)
 -----------------------------------------------------------------------------------------
    total drift (improves with k-points):   0.00007 -0.00055 -0.07256




--------------------------------------------------------------------------------------------------------




 MACROSCOPIC STATIC DIELECTRIC TENSOR (including local field effects in DFT)
 ------------------------------------------------------
           6.961125    -0.000001     0.000001
          -0.000003     6.960015    -0.001753
          -0.000008    -0.001760     6.375127
 ------------------------------------------------------



--------------------------------------------------------------------------------------------------------




--------------------------------------------------------------------------------------------------------




 MACROSCOPIC STATIC DIELECTRIC TENSOR (including local field effects in DFT)
 ------------------------------------------------------
           6.961125    -0.000001     0.000001
          -0.000003     6.960015    -0.001753
          -0.000008    -0.001760     6.375127
 ------------------------------------------------------


 PIEZOELECTRIC TENSOR (including local field effects)  for field in x, y, z        (e  Angst)
          XX          YY          ZZ          XY          YZ          ZX
  --------------------------------------------------------------------------------
  x    -0.00199     0.00043    -0.00027     1.10801     0.00034     0.01383
  y    -0.12049    -0.00844    -0.12613    -0.00010     0.01835    -0.00013
  z    -0.04723    -0.01430     0.08547    -0.00012     0.31924     0.00016

 PIEZOELECTRIC TENSOR (including local field effects)  for field in x, y, z        (C/m^2)
          XX          YY          ZZ          XY          YZ          ZX
  --------------------------------------------------------------------------------
  x    -0.00003     0.00001    -0.00000     0.01428     0.00000     0.00018
  y    -0.00155    -0.00011    -0.00163    -0.00000     0.00024    -0.00000
  z    -0.00061    -0.00018     0.00110    -0.00000     0.00411     0.00000

 BORN EFFECTIVE CHARGES (including local field effects) (in |e|, cummulative output)
 ---------------------------------------------------------------------------------
 ion    1
    1     6.67191     0.00006     0.00028
    2     0.00006     6.66165     0.01053
    3     0.00021     0.00444     5.78823
 ion    2
    1     6.65814     0.00002    -0.00013
    2    -0.00002     6.66698    -0.00757
    3    -0.00022     0.00004     5.78858
 ion    3
    1     6.66658    -0.00015     0.00026
    2    -0.00010     6.65400    -0.00822
    3     0.00020    -0.00029     5.78598
 ion    4
    1     6.61951    -0.26272     0.01635
    2    -0.06773     6.65914     0.01194
    3     0.00977     0.03494     5.77661
 ion    5
    1     6.65938     0.01571    -0.00411
    2     0.00478     6.64703    -0.00299
    3     0.00419     0.02059     5.78909
 ion    6
    1     6.65095     0.02439     0.00902
    2     0.00889     6.67314    -0.00349
    3    -0.00444     0.02064     5.78266
 ion    7
    1     6.62070     0.26264    -0.01664
    2     0.06772     6.65937     0.01156
    3    -0.00993     0.03455     5.77730
 ion    8
    1     6.66340    -0.01576     0.00419
    2    -0.00477     6.65001    -0.00297
    3    -0.00390     0.02057     5.78915
 ion    9
    1     6.65229    -0.02433    -0.00935
    2    -0.00888     6.67340    -0.00305
    3     0.00425     0.02105     5.78336
 ion   10
    1     6.66485     0.00000     0.00016
    2    -0.00001     6.65175    -0.00530
    3     0.00023     0.00119     5.78453
 ion   11
    1     6.66203    -0.00009    -0.00028
    2    -0.00004     6.66714    -0.00234
    3    -0.00017     0.00142     5.78946
 ion   12
    1     6.66177     0.00007    -0.00027
    2     0.00006     6.66130     0.00364
    3    -0.00015    -0.00310     5.78829
 ion   13
    1     6.64769    -0.00261    -0.01877
    2    -0.00063     6.64012     0.00718
    3    -0.00331     0.00407     5.81138
 ion   14
    1     6.66390    -0.00556     0.00982
    2    -0.00126     6.67276     0.00787
    3     0.00388     0.00943     5.76906
 ion   15
    1     6.65880     0.00683    -0.00154
    2     0.00115     6.66207     0.00165
    3     0.00016    -0.01091     5.78733
 ion   16
    1     6.65177     0.00261     0.01866
    2     0.00064     6.64308     0.00719
    3     0.00309     0.00409     5.81144
 ion   17
    1     6.66525     0.00564    -0.00954
    2     0.00135     6.67300     0.00746
    3    -0.00368     0.00903     5.76975
 ion   18
    1     6.66010    -0.00687     0.00186
    2    -0.00121     6.66229     0.00204
    3     0.00005    -0.01046     5.78801
 ion   19
    1     6.66222    -0.00046    -0.00268
    2     0.00372     6.65015     0.00754
    3     0.00253     0.00142     5.79469
 ion   20
    1     6.65630     0.00098     0.00238
    2     0.00308     6.66540     0.00484
    3    -0.00281     0.00005     5.78360
 ion   21
    1     6.66017    -0.00092    -0.00043
    2    -0.00136     6.66093    -0.00432
    3     0.00002    -0.00162     5.78804
 ion   22
    1     6.66634     0.00046     0.00277
    2    -0.00368     6.65309     0.00757
    3    -0.00229     0.00142     5.79475
 ion   23
    1     6.65765    -0.00089    -0.00262
    2    -0.00300     6.66559     0.00525
    3     0.00267     0.00046     5.78427
 ion   24
    1     6.66154     0.00082     0.00016
    2     0.00135     6.66116    -0.00471
    3    -0.00013    -0.00202     5.78873
 ion   25
    1     6.66039     0.00000    -0.00013
    2     0.00001     6.63017    -0.00641
    3    -0.00024     0.00453     5.80766
 ion   26
    1     6.65799    -0.00007     0.00025
    2    -0.00008     6.68432    -0.00550
    3     0.00020    -0.00527     5.77834
 ion   27
    1     6.66035     0.00008     0.00028
    2     0.00007     6.66166    -0.00738
    3     0.00020    -0.00308     5.78883
 ion   28
    1     6.65778     0.00546    -0.00504
    2     0.00137     6.66035    -0.01449
    3    -0.00249    -0.00478     5.78774
 ion   29
    1     6.65076    -0.00079    -0.00178
    2    -0.00416     6.66331     0.01036
    3    -0.00039    -0.00165     5.78665
 ion   30
    1     6.66704    -0.00159     0.00264
    2    -0.00557     6.65476     0.01203
    3     0.00017    -0.00014     5.78828
 ion   31
    1     6.65918    -0.00554     0.00523
    2    -0.00146     6.66057    -0.01411
    3     0.00270    -0.00434     5.78843
 ion   32
    1     6.65484     0.00075     0.00161
    2     0.00419     6.66627     0.01030
    3     0.00018    -0.00167     5.78673
 ion   33
    1     6.66839     0.00169    -0.00237
    2     0.00567     6.65491     0.01162
    3     0.00000    -0.00057     5.78896
 ion   34
    1     6.63235     0.00007    -0.00029
    2     0.00005     6.65135    -0.11982
    3    -0.00020    -0.19338     5.75771
 ion   35
    1     6.65609     0.00001     0.00011
    2    -0.00001     6.65667     0.01656
    3     0.00024    -0.01985     5.77956
 ion   36
    1     6.66455    -0.00008    -0.00031
    2    -0.00008     6.66713     0.02306
    3    -0.00018    -0.01880     5.79293
 ion   37
    1    -5.53905     0.00044     0.00419
    2    -0.02388    -1.12153     0.01313
    3     0.00070     0.01122    -2.89105
 ion   38
    1    -5.53502    -0.00017     0.00327
    2     0.01175    -1.12223    -0.00342
    3     0.00161     0.00002    -2.89314
 ion   39
    1    -5.54264     0.00011    -0.00405
    2     0.01491    -1.12335    -0.00428
    3    -0.00203     0.00015    -2.89364
 ion   40
    1    -5.53803    -0.00030    -0.00423
    2     0.02394    -1.12157     0.01313
    3    -0.00102     0.01122    -2.89115
 ion   41
    1    -5.53411     0.00018    -0.00329
    2    -0.01170    -1.12236    -0.00339
    3    -0.00190     0.00004    -2.89374
 ion   42
    1    -5.54151    -0.00025     0.00400
    2    -0.01495    -1.12337    -0.00431
    3     0.00172     0.00010    -2.89372
 ion   43
    1    -5.42963    -0.00010     0.00005
    2    -0.00011    -1.13949     0.05246
    3     0.00029     0.05205    -2.84777
 ion   44
    1    -5.53894     0.00000     0.00008
    2     0.00000    -1.12299    -0.00266
    3     0.00026    -0.00094    -2.88969
 ion   45
    1    -5.52624     0.00013     0.00011
    2     0.00009    -1.12426    -0.00500
    3     0.00033     0.00011    -2.89717
 ion   46
    1    -1.12430    -0.00006     0.00001
    2    -0.00013    -5.53538    -0.00805
    3    -0.00002    -0.00377    -2.89340
 ion   47
    1    -1.12390     0.00001    -0.00002
    2    -0.00001    -5.54220     0.00442
    3    -0.00004     0.00228    -2.89330
 ion   48
    1    -1.12333     0.00006     0.00000
    2     0.00015    -5.53274     0.00449
    3    -0.00000     0.00183    -2.89423
 ion   49
    1    -1.12220     0.00910     0.00286
    2    -0.00917    -5.53362    -0.01960
    3     0.00094    -0.02284    -2.89384
 ion   50
    1    -1.12294    -0.00481    -0.00237
    2     0.00179    -5.54429     0.01227
    3     0.00028     0.00974    -2.89441
 ion   51
    1    -1.12079    -0.00743     0.00414
    2     0.00216    -5.53078     0.01428
    3    -0.00082     0.01190    -2.89129
 ion   52
    1    -1.12335    -0.00905    -0.00285
    2     0.00927    -5.53379    -0.01958
    3    -0.00096    -0.02282    -2.89391
 ion   53
    1    -1.12418     0.00478     0.00242
    2    -0.00178    -5.54457     0.01225
    3    -0.00027     0.00974    -2.89496
 ion   54
    1    -1.12193     0.00736    -0.00408
    2    -0.00232    -5.53094     0.01425
    3     0.00081     0.01184    -2.89134
 ion   55
    1    -1.12238     0.00001     0.00003
    2     0.00001    -5.52816     0.00427
    3     0.00003    -0.00164    -2.89318
 ion   56
    1    -1.12513     0.00006     0.00002
    2     0.00013    -5.54660     0.00130
    3     0.00000    -0.00054    -2.89316
 ion   57
    1    -1.12338    -0.00003     0.00002
    2    -0.00012    -5.53743    -0.00238
    3    -0.00000     0.00045    -2.89415
 ion   58
    1    -1.14822    -0.03826     0.01625
    2     0.02785    -5.53409    -0.02549
    3    -0.00061    -0.00619    -2.90825
 ion   59
    1    -1.10032    -0.02452    -0.01109
    2     0.02169    -5.53407    -0.02132
    3    -0.00015    -0.00382    -2.88041
 ion   60
    1    -1.12201    -0.01122     0.00040
    2    -0.00134    -5.53911    -0.00269
    3    -0.00003    -0.01334    -2.89369
 ion   61
    1    -1.14940     0.03829    -0.01629
    2    -0.02782    -5.53441    -0.02552
    3     0.00057    -0.00621    -2.90882
 ion   62
    1    -1.10160     0.02451     0.01109
    2    -0.02184    -5.53424    -0.02129
    3     0.00014    -0.00376    -2.88048
 ion   63
    1    -1.12315     0.01129    -0.00039
    2     0.00147    -5.53924    -0.00276
    3     0.00004    -0.01338    -2.89375
 ion   64
    1    -5.54025     0.00023     0.00196
    2    -0.00454    -1.12197    -0.00134
    3    -0.00896     0.00048    -2.89631
 ion   65
    1    -5.53844    -0.00024    -0.00247
    2    -0.00341    -1.12328    -0.00141
    3     0.00547    -0.00051    -2.89305
 ion   66
    1    -5.53841    -0.00001     0.00018
    2     0.00371    -1.12358     0.00079
    3    -0.00007     0.00007    -2.89411
 ion   67
    1    -5.53933    -0.00028    -0.00195
    2     0.00454    -1.12209    -0.00133
    3     0.00923     0.00049    -2.89692
 ion   68
    1    -5.53735     0.00014     0.00253
    2     0.00332    -1.12329    -0.00140
    3    -0.00518    -0.00048    -2.89313
 ion   69
    1    -5.53734     0.00013    -0.00016
    2    -0.00365    -1.12360     0.00079
    3     0.00033     0.00002    -2.89419
 ion   70
    1    -5.52637     0.00000    -0.00005
    2    -0.00001    -1.12219     0.00613
    3    -0.00028     0.00030    -2.90691
 ion   71
    1    -5.53954     0.00010    -0.00011
    2     0.00007    -1.12340     0.00366
    3    -0.00032    -0.00030    -2.88701
 ion   72
    1    -5.53490    -0.00013    -0.00011
    2    -0.00006    -1.12368     0.00096
    3    -0.00032     0.00003    -2.89439
 ion   73
    1    -5.53947     0.00003     0.00004
    2    -0.00000    -1.12216    -0.00075
    3     0.00028    -0.00063    -2.89389
 ion   74
    1    -5.53668     0.00011     0.00006
    2     0.00006    -1.12336    -0.00072
    3     0.00030    -0.00013    -2.89487
 ion   75
    1    -5.53753    -0.00011     0.00007
    2    -0.00008    -1.12356     0.00075
    3     0.00028     0.00079    -2.89404
 ion   76
    1    -5.54009    -0.00015     0.00568
    2     0.00569    -1.12202    -0.00099
    3     0.00078    -0.00058    -2.89943
 ion   77
    1    -5.53443     0.00016    -0.00322
    2     0.00454    -1.12332    -0.00096
    3    -0.00269     0.00004    -2.89105
 ion   78
    1    -5.53772     0.00001     0.00052
    2    -0.00193    -1.12360     0.00200
    3    -0.00005     0.00136    -2.89402
 ion   79
    1    -5.53917     0.00016    -0.00574
    2    -0.00569    -1.12216    -0.00099
    3    -0.00107    -0.00059    -2.90003
 ion   80
    1    -5.53331    -0.00026     0.00312
    2    -0.00460    -1.12335    -0.00095
    3     0.00234     0.00001    -2.89114
 ion   81
    1    -5.53663     0.00012    -0.00064
    2     0.00199    -1.12362     0.00200
    3    -0.00029     0.00139    -2.89411
 ion   82
    1    -1.12398    -0.00040     0.00027
    2     0.00113    -5.52939    -0.00478
    3     0.00046    -0.00155    -2.89598
 ion   83
    1    -1.12034    -0.00158     0.00000
    2     0.00103    -5.54462    -0.00271
    3    -0.00058    -0.00046    -2.89207
 ion   84
    1    -1.12225     0.00266     0.00009
    2     0.00031    -5.53735     0.00220
    3    -0.00005     0.00141    -2.89416
 ion   85
    1    -1.12522     0.00040    -0.00024
    2    -0.00113    -5.52969    -0.00479
    3    -0.00042    -0.00158    -2.89655
 ion   86
    1    -1.12148     0.00153     0.00004
    2    -0.00119    -5.54474    -0.00272
    3     0.00060    -0.00050    -2.89214
 ion   87
    1    -1.12341    -0.00259    -0.00010
    2    -0.00022    -5.53751     0.00224
    3     0.00005     0.00147    -2.89423
 ion   88
    1    -1.11312     0.00001    -0.00003
    2     0.00001    -5.52542     0.02039
    3    -0.00003     0.01245    -2.89592
 ion   89
    1    -1.13180     0.00005     0.00001
    2     0.00015    -5.54249     0.01938
    3    -0.00001     0.01714    -2.89061
 ion   90
    1    -1.12349    -0.00007    -0.00002
    2    -0.00013    -5.53824     0.00167
    3    -0.00001     0.01353    -2.89376
 ion   91
    1    -1.12255    -0.00186     0.00116
    2    -0.00099    -5.53543     0.00569
    3     0.00017    -0.00283    -2.89483
 ion   92
    1    -1.12220     0.00061    -0.00016
    2    -0.00008    -5.54129    -0.00433
    3     0.00005     0.00126    -2.89260
 ion   93
    1    -1.12248     0.00117     0.00027
    2    -0.00008    -5.53290    -0.00459
    3     0.00003     0.00187    -2.89543
 ion   94
    1    -1.12372     0.00190    -0.00114
    2     0.00113    -5.53554     0.00562
    3    -0.00021    -0.00290    -2.89488
 ion   95
    1    -1.12345    -0.00062     0.00015
    2     0.00011    -5.54160    -0.00430
    3    -0.00010     0.00127    -2.89317
 ion   96
    1    -1.12360    -0.00123    -0.00028
    2    -0.00006    -5.53303    -0.00457
    3    -0.00005     0.00192    -2.89550
 ion   97
    1    -1.12085    -0.00003     0.00001
    2    -0.00013    -5.52995     0.05262
    3    -0.00000     0.01449    -2.89763
 ion   98
    1    -1.12238    -0.00002     0.00003
    2    -0.00002    -5.54448    -0.01096
    3     0.00002     0.00344    -2.89487
 ion   99
    1    -1.12439     0.00005     0.00004
    2     0.00014    -5.52994    -0.01299
    3    -0.00001     0.00109    -2.89287
 ion  100
    1    -5.54340    -0.00014    -0.00007
    2    -0.00006    -1.12260     0.00713
    3    -0.00032     0.00016    -2.89479
 ion  101
    1    -5.53417    -0.00000    -0.00003
    2    -0.00002    -1.12249    -0.00217
    3    -0.00027     0.00005    -2.89575
 ion  102
    1    -5.54096     0.00015    -0.00007
    2     0.00006    -1.12360    -0.00235
    3    -0.00031    -0.00001    -2.89152
 ion  103
    1    -5.53104     0.00061    -0.00899
    2     0.01319    -1.12051     0.01200
    3    -0.00768     0.00060    -2.89339
 ion  104
    1    -5.53219     0.00010     0.00308
    2    -0.00522    -1.12233    -0.00606
    3    -0.00057     0.00010    -2.89439
 ion  105
    1    -5.54290    -0.00004    -0.00481
    2    -0.00664    -1.12341    -0.00791
    3     0.00012    -0.00014    -2.89211
 ion  106
    1    -5.52993    -0.00048     0.00913
    2    -0.01312    -1.12055     0.01199
    3     0.00799     0.00056    -2.89348
 ion  107
    1    -5.53127    -0.00012    -0.00301
    2     0.00520    -1.12246    -0.00605
    3     0.00084     0.00011    -2.89499
 ion  108
    1    -5.54182    -0.00007     0.00493
    2     0.00657    -1.12345    -0.00792
    3     0.00021    -0.00012    -2.89222


--------------------------------------------------------------------------------------------------------


     LOOP+:  cpu time   2617.4926: real time   2677.9551
    4ORBIT:  cpu time      0.0000: real time      0.0000

 total amount of memory used by VASP MPI-rank0   266725. kBytes
=======================================================================

   base      :      30000. kBytes
   nonlr-proj:      19556. kBytes
   fftplans  :      10927. kBytes
   grid      :      23181. kBytes
   one-center:       1679. kBytes
   wavefun   :     181382. kBytes



 General timing and accounting informations for this job:
 ========================================================

                  Total CPU time used (sec):     2629.240
                            User time (sec):     2550.498
                          System time (sec):       78.742
                         Elapsed time (sec):     2698.428

                   Maximum memory used (kb):     1091028.
                   Average memory used (kb):          N/A

                          Minor page faults:      1793746
                          Major page faults:            6
                 Voluntary context switches:       136574
