 vasp.6.3.0 20Jan22 (build Mar 29 2022 16:24:06) complex

 executed on             Bridges2 date 2023.01.12  19:12:25
 running on   32 total cores
 distrk:  each k-point on    4 cores,    8 groups
 distr:  one band on NCORE=   1 cores,    4 groups


--------------------------------------------------------------------------------------------------------


 INCAR:
   ICHARG = 2
   LWAVE = .FALSE.
   LCHARG = .FALSE.
   LVTOT = .FALSE.
   NCORE = 1
   KPAR = 8
   EDIFF = 1E-7
   NELM = 80
   PREC = Normal
   LREAL = Auto
   NELMIN = 4
   ENCUT = 400.0 eV
   ISPIN = 1
   ISMEAR = 0
   SIGMA = 0.10
   NSW = 0
   LEPSILON = .TRUE.
   LPEAD = .TRUE.
   ISYM = 0

 POTCAR:    PAW_PBE Ti_pv 07Sep2000
 POTCAR:    PAW_PBE O 08Apr2002
 -----------------------------------------------------------------------------
|                                                                             |
|           W    W    AA    RRRRR   N    N  II  N    N   GGGG   !!!           |
|           W    W   A  A   R    R  NN   N  II  NN   N  G    G  !!!           |
|           W    W  A    A  R    R  N N  N  II  N N  N  G       !!!           |
|           W WW W  AAAAAA  RRRRR   N  N N  II  N  N N  G  GGG   !            |
|           WW  WW  A    A  R   R   N   NN  II  N   NN  G    G                |
|           W    W  A    A  R    R  N    N  II  N    N   GGGG   !!!           |
|                                                                             |
|     For optimal performance we recommend to set                             |
|       NCORE = 2 up to number-of-cores-per-socket                            |
|     NCORE specifies how many cores store one orbital (NPAR=cpu/NCORE).      |
|     This setting can greatly improve the performance of VASP for DFT.       |
|     The default, NCORE=1 might be grossly inefficient on modern             |
|     multi-core architectures or massively parallel machines. Do your        |
|     own testing! More info at https://www.vasp.at/wiki/index.php/NCORE      |
|     Unfortunately you need to use the default for GW and RPA                |
|     calculations (for HF NCORE is supported but not extensively tested      |
|     yet).                                                                   |
|                                                                             |
 -----------------------------------------------------------------------------

 POTCAR:    PAW_PBE Ti_pv 07Sep2000
   VRHFIN =Ti: d3 s1
   LEXCH  = PE
   EATOM  =  1042.5995 eV,   76.6289 Ry

   TITEL  = PAW_PBE Ti_pv 07Sep2000
   LULTRA =        F    use ultrasoft PP ?
   IUNSCR =        1    unscreen: 0-lin 1-nonlin 2-no
   RPACOR =    2.200    partial core radius
   POMASS =   47.880; ZVAL   =   10.000    mass and valenz
   RCORE  =    2.500    outmost cutoff radius
   RWIGS  =    2.500; RWIGS  =    1.323    wigner-seitz radius (au A)
   ENMAX  =  222.335; ENMIN  =  166.751 eV
   RCLOC  =    1.701    cutoff for local pot
   LCOR   =        T    correct aug charges
   LPAW   =        T    paw PP
   EAUG   =  482.848
   DEXC   =    0.000
   RMAX   =    2.564    core radius for proj-oper
   RAUG   =    1.300    factor for augmentation sphere
   RDEP   =    2.538    radius for radial grids
   RDEPT  =    1.952    core radius for aug-charge

   Atomic configuration
    8 entries
     n  l   j            E        occ.
     1  0  0.50     -4865.3608   2.0000
     2  0  0.50      -533.1368   2.0000
     2  1  1.50      -440.5031   6.0000
     3  0  0.50       -59.3186   2.0000
     3  1  1.50       -35.7012   6.0000
     3  2  2.50        -1.9157   3.0000
     4  0  0.50        -3.7291   1.0000
     4  3  2.50        -1.3606   0.0000
   Description
     l       E           TYP  RCUT    TYP  RCUT
     1    -35.7012140     23  2.300
     1     -1.3605826     23  2.300
     2     -1.9156996     23  2.500
     2     -0.4063033     23  2.500
     0     -3.7290856     23  2.500
     0     20.4087390     23  2.500
  local pseudopotential read in
  partial core-charges read in
  partial kinetic energy density read in
  atomic valenz-charges read in
  non local Contribution for L=           1  read in
    real space projection operators read in
  non local Contribution for L=           1  read in
    real space projection operators read in
  non local Contribution for L=           2  read in
    real space projection operators read in
  non local Contribution for L=           2  read in
    real space projection operators read in
  non local Contribution for L=           0  read in
    real space projection operators read in
  non local Contribution for L=           0  read in
    real space projection operators read in
    PAW grid and wavefunctions read in

   number of l-projection  operators is LMAX  =           6
   number of lm-projection operators is LMMAX =          18

 POTCAR:    PAW_PBE O 08Apr2002
   VRHFIN =O: s2p4
   LEXCH  = PE
   EATOM  =   432.3788 eV,   31.7789 Ry

   TITEL  = PAW_PBE O 08Apr2002
   LULTRA =        F    use ultrasoft PP ?
   IUNSCR =        1    unscreen: 0-lin 1-nonlin 2-no
   RPACOR =    1.200    partial core radius
   POMASS =   16.000; ZVAL   =    6.000    mass and valenz
   RCORE  =    1.520    outmost cutoff radius
   RWIGS  =    1.550; RWIGS  =    0.820    wigner-seitz radius (au A)
   ENMAX  =  400.000; ENMIN  =  300.000 eV
   ICORE  =        2    local potential
   LCOR   =        T    correct aug charges
   LPAW   =        T    paw PP
   EAUG   =  605.392
   DEXC   =    0.000
   RMAX   =    1.553    core radius for proj-oper
   RAUG   =    1.300    factor for augmentation sphere
   RDEP   =    1.550    radius for radial grids
   RDEPT  =    1.329    core radius for aug-charge

   Atomic configuration
    4 entries
     n  l   j            E        occ.
     1  0  0.50      -514.6923   2.0000
     2  0  0.50       -23.9615   2.0000
     2  1  0.50        -9.0305   4.0000
     3  2  1.50        -9.5241   0.0000
   Description
     l       E           TYP  RCUT    TYP  RCUT
     0    -23.9615318     23  1.200
     0     -9.5240782     23  1.200
     1     -9.0304911     23  1.520
     1      8.1634956     23  1.520
     2     -9.5240782      7  1.500
  local pseudopotential read in
  partial core-charges read in
  partial kinetic energy density read in
  kinetic energy density of atom read in
  atomic valenz-charges read in
  non local Contribution for L=           0  read in
    real space projection operators read in
  non local Contribution for L=           0  read in
    real space projection operators read in
  non local Contribution for L=           1  read in
    real space projection operators read in
  non local Contribution for L=           1  read in
    real space projection operators read in
    PAW grid and wavefunctions read in

   number of l-projection  operators is LMAX  =           4
   number of lm-projection operators is LMMAX =           8

 Optimization of the real space projectors (new method)

 maximal supplied QI-value         = 15.12
 optimisation between [QCUT,QGAM] = [ 10.13, 20.41] = [ 28.73,116.64] Ry
 Optimized for a Real-space Cutoff    1.51 Angstroem

   l    n(q)    QCUT    max X(q) W(low)/X(q) W(high)/X(q)  e(spline)
   1      9    10.129     4.216    0.12E-04    0.72E-04    0.60E-07
   1      9    10.129     5.422    0.84E-04    0.21E-03    0.15E-06
   2      8    10.129    72.084    0.33E-03    0.35E-04    0.17E-06
   2      8    10.129    65.965    0.33E-03    0.37E-04    0.17E-06
   0      9    10.129    41.531    0.17E-03    0.19E-03    0.81E-07
   0      9    10.129    16.290    0.12E-03    0.14E-03    0.64E-07
 Optimization of the real space projectors (new method)

 maximal supplied QI-value         = 24.76
 optimisation between [QCUT,QGAM] = [ 10.15, 20.30] = [ 28.85,115.39] Ry
 Optimized for a Real-space Cutoff    1.38 Angstroem

   l    n(q)    QCUT    max X(q) W(low)/X(q) W(high)/X(q)  e(spline)
   0      8    10.150    20.381    0.22E-03    0.32E-03    0.29E-06
   0      8    10.150    15.268    0.23E-03    0.35E-03    0.30E-06
   1      8    10.150     5.964    0.46E-03    0.53E-03    0.21E-06
   1      8    10.150     5.382    0.38E-03    0.45E-03    0.19E-06
  PAW_PBE Ti_pv 07Sep2000               :
 energy of atom  1       EATOM=-1042.5995
 kinetic energy error for atom=    0.0037 (will be added to EATOM!!)
  PAW_PBE O 08Apr2002                   :
 energy of atom  2       EATOM= -432.3788
 kinetic energy error for atom=    0.1156 (will be added to EATOM!!)


 POSCAR: Ti4 O8
  positions in cartesian coordinates
  No initial velocities read in
 exchange correlation table for  LEXCH =        8
   RHO(1)=    0.500       N(1)  =     2000
   RHO(2)=  100.500       N(2)  =     4000



--------------------------------------------------------------------------------------------------------


 ion  position               nearest neighbor table
   1  0.167  0.167  0.500-  56 1.94  55 1.94  40 1.94  37 1.94 100 2.00  46 2.00  31 3.06  28 3.06
                            11 3.06  10 3.06
   2  0.167  0.500  0.500-  56 1.94  41 1.94  38 1.94  57 1.94 101 2.00  47 2.00  11 3.06  32 3.06
                            29 3.06  12 3.06
   3  0.167  0.833  0.500-  57 1.94  42 1.94  39 1.94  55 1.94 102 2.00  48 2.00  12 3.06  33 3.06
                            30 3.06  10 3.06
   4  0.500  0.167  0.500-  40 1.94  59 1.94  58 1.94 103 2.00  49 2.00  43 2.04  31 3.06  14 3.06
                            13 3.06  34 3.06
   5  0.500  0.500  0.500-  59 1.94  41 1.94  60 1.94  44 1.94 104 2.00  50 2.00  32 3.06  14 3.06
                            35 3.06  15 3.06
   6  0.500  0.833  0.500-  60 1.94  42 1.94  58 1.94  45 1.94 105 2.00  51 2.00  15 3.06  33 3.06
                            13 3.06  36 3.06
   7  0.833  0.167  0.500-  43 1.84  62 1.94  61 1.94  37 1.94 106 2.00  52 2.00  34 3.06  17 3.06
                            16 3.06  28 3.06
   8  0.833  0.500  0.500-  44 1.94  62 1.94  63 1.94  38 1.94 107 2.00  53 2.00  35 3.06  17 3.06
                            29 3.06  18 3.06
   9  0.833  0.833  0.500-  63 1.94  45 1.94  61 1.94  39 1.94 108 2.00  54 2.00  36 3.06  18 3.06
                            30 3.06  16 3.06
  10  0.167  0.000  0.750-  67 1.94  64 1.94  46 1.94  48 1.94  73 2.00  55 2.00  22 3.06  19 3.06
                             1 3.06   3 3.06
  11  0.167  0.333  0.750-  47 1.94  46 1.94  68 1.94  65 1.94  74 2.00  56 2.00   2 3.06  23 3.06
                            20 3.06   1 3.06
  12  0.167  0.667  0.750-  48 1.94  69 1.94  66 1.94  47 1.94  75 2.00  57 2.00   3 3.06  24 3.06
                            21 3.06   2 3.06
  13  0.500  0.000  0.750-  67 1.94  49 1.94  51 1.94  70 1.94  76 2.00  58 2.00  22 3.06   4 3.06
                            25 3.06   6 3.06
  14  0.500  0.333  0.750-  50 1.94  68 1.94  49 1.94  71 1.94  77 2.00  59 2.00  23 3.06   5 3.06
                             4 3.06  26 3.06
  15  0.500  0.667  0.750-  51 1.94  69 1.94  50 1.94  72 1.94  78 2.00  60 2.00   6 3.06  24 3.06
                            27 3.06   5 3.06
  16  0.833  0.000  0.750-  70 1.94  52 1.94  64 1.94  54 1.94  79 2.00  61 2.00  25 3.06   7 3.06
                            19 3.06   9 3.06
  17  0.833  0.333  0.750-  71 1.94  53 1.94  52 1.94  65 1.94  80 2.00  62 2.00  26 3.06   8 3.06
                             7 3.06  20 3.06
  18  0.833  0.667  0.750-  54 1.94  72 1.94  66 1.94  53 1.94  81 2.00  63 2.00  27 3.06   9 3.06
                            21 3.06   8 3.06
  19  0.000  0.000  0.000-  73 1.94  91 1.94  79 1.94  93 1.94  82 2.00  64 2.00  10 3.06  28 3.06
                            16 3.06  30 3.06
  20  0.000  0.333  0.000-  92 1.94  74 1.94  91 1.94  80 1.94  83 2.00  65 2.00  29 3.06  11 3.06
                            28 3.06  17 3.06
  21  0.000  0.667  0.000-  93 1.94  75 1.94  81 1.94  92 1.94  84 2.00  66 2.00  30 3.06  12 3.06
                            18 3.06  29 3.06
  22  0.333  0.000  0.000-  76 1.94  73 1.94  94 1.94  96 1.94  85 2.00  67 2.00  13 3.06  10 3.06
                            31 3.06  33 3.06
  23  0.333  0.333  0.000-  77 1.94  95 1.94  74 1.94  94 1.94  86 2.00  68 2.00  14 3.06  32 3.06
                            11 3.06  31 3.06
  24  0.333  0.667  0.000-  96 1.94  78 1.94  75 1.94  95 1.94  87 2.00  69 2.00  33 3.06  15 3.06
                            12 3.06  32 3.06
  25  0.667  0.000  0.000-  79 1.94  97 1.94  76 1.94  99 1.94  88 2.00  70 2.00  16 3.06  34 3.06
                            13 3.06  36 3.06
  26  0.667  0.333  0.000-  80 1.94  98 1.94  97 1.94  77 1.94  89 2.00  71 2.00  17 3.06  35 3.06
                            34 3.06  14 3.06
  27  0.667  0.667  0.000-  81 1.94  99 1.94  78 1.94  98 1.94  90 2.00  72 2.00  18 3.06  36 3.06
                            15 3.06  35 3.06
  28  0.000  0.167  0.250-  83 1.94  82 1.94 100 1.94 106 1.94  37 2.00  91 2.00   1 3.06  20 3.06
                            19 3.06   7 3.06
  29  0.000  0.500  0.250-  83 1.94 101 1.94  84 1.94 107 1.94  38 2.00  92 2.00  20 3.06   2 3.06
                             8 3.06  21 3.06
  30  0.000  0.833  0.250-  84 1.94 102 1.94  82 1.94 108 1.94  39 2.00  93 2.00  21 3.06   3 3.06
                             9 3.06  19 3.06
  31  0.333  0.167  0.250- 103 1.94  86 1.94  85 1.94 100 1.94  40 2.00  94 2.00   4 3.06   1 3.06
                            23 3.06  22 3.06
  32  0.333  0.500  0.250-  86 1.94 104 1.94 101 1.94  87 1.94  41 2.00  95 2.00   5 3.06  23 3.06
                             2 3.06  24 3.06
  33  0.333  0.833  0.250-  87 1.94 105 1.94 102 1.94  85 1.94  42 2.00  96 2.00  24 3.06   6 3.06
                             3 3.06  22 3.06
  34  0.667  0.167  0.250- 106 1.94  89 1.94  88 1.94 103 1.94  97 2.00  43 2.00   7 3.06  26 3.06
                            25 3.06   4 3.06
  35  0.667  0.500  0.250- 107 1.94  89 1.94  90 1.94 104 1.94  44 2.00  98 2.00   8 3.06  26 3.06
                             5 3.06  27 3.06
  36  0.667  0.833  0.250-  90 1.94 108 1.94  88 1.94 105 1.94  45 2.00  99 2.00   9 3.06  27 3.06
                            25 3.06   6 3.06
  37  0.000  0.167  0.458-   1 1.94   7 1.94  28 2.00
  38  0.000  0.500  0.458-   2 1.94   8 1.94  29 2.00
  39  0.000  0.833  0.458-   3 1.94   9 1.94  30 2.00
  40  0.333  0.167  0.458-   4 1.94   1 1.94  31 2.00
  41  0.333  0.500  0.458-   5 1.94   2 1.94  32 2.00
  42  0.333  0.833  0.458-   6 1.94   3 1.94  33 2.00
  43  0.675  0.167  0.458-   7 1.84  34 2.00   4 2.04
  44  0.667  0.500  0.458-   8 1.94   5 1.94  35 2.00
  45  0.667  0.833  0.458-   9 1.94   6 1.94  36 2.00
  46  0.167  0.167  0.708-  11 1.94  10 1.94   1 2.00
  47  0.167  0.500  0.708-  11 1.94  12 1.94   2 2.00
  48  0.167  0.833  0.708-  12 1.94  10 1.94   3 2.00
  49  0.500  0.167  0.708-  14 1.94  13 1.94   4 2.00
  50  0.500  0.500  0.708-  14 1.94  15 1.94   5 2.00
  51  0.500  0.833  0.708-  15 1.94  13 1.94   6 2.00
  52  0.833  0.167  0.708-  17 1.94  16 1.94   7 2.00
  53  0.833  0.500  0.708-  17 1.94  18 1.94   8 2.00
  54  0.833  0.833  0.708-  18 1.94  16 1.94   9 2.00
  55  0.167  0.000  0.542-   1 1.94   3 1.94  10 2.00
  56  0.167  0.333  0.542-   2 1.94   1 1.94  11 2.00
  57  0.167  0.667  0.542-   3 1.94   2 1.94  12 2.00
  58  0.500  0.000  0.542-   4 1.94   6 1.94  13 2.00
  59  0.500  0.333  0.542-   5 1.94   4 1.94  14 2.00
  60  0.500  0.667  0.542-   6 1.94   5 1.94  15 2.00
  61  0.833  0.000  0.542-   7 1.94   9 1.94  16 2.00
  62  0.833  0.333  0.542-   8 1.94   7 1.94  17 2.00
  63  0.833  0.667  0.542-   9 1.94   8 1.94  18 2.00
  64  0.000  0.000  0.792-  10 1.94  16 1.94  19 2.00
  65  0.000  0.333  0.792-  11 1.94  17 1.94  20 2.00
  66  0.000  0.667  0.792-  12 1.94  18 1.94  21 2.00
  67  0.333  0.000  0.792-  13 1.94  10 1.94  22 2.00
  68  0.333  0.333  0.792-  14 1.94  11 1.94  23 2.00
  69  0.333  0.667  0.792-  15 1.94  12 1.94  24 2.00
  70  0.667  0.000  0.792-  16 1.94  13 1.94  25 2.00
  71  0.667  0.333  0.792-  17 1.94  14 1.94  26 2.00
  72  0.667  0.667  0.792-  18 1.94  15 1.94  27 2.00
  73  0.167  0.000  0.958-  22 1.94  19 1.94  10 2.00
  74  0.167  0.333  0.958-  23 1.94  20 1.94  11 2.00
  75  0.167  0.667  0.958-  24 1.94  21 1.94  12 2.00
  76  0.500  0.000  0.958-  22 1.94  25 1.94  13 2.00
  77  0.500  0.333  0.958-  23 1.94  26 1.94  14 2.00
  78  0.500  0.667  0.958-  24 1.94  27 1.94  15 2.00
  79  0.833  0.000  0.958-  25 1.94  19 1.94  16 2.00
  80  0.833  0.333  0.958-  26 1.94  20 1.94  17 2.00
  81  0.833  0.667  0.958-  27 1.94  21 1.94  18 2.00
  82  0.000  0.000  0.208-  28 1.94  30 1.94  19 2.00
  83  0.000  0.333  0.208-  29 1.94  28 1.94  20 2.00
  84  0.000  0.667  0.208-  30 1.94  29 1.94  21 2.00
  85  0.333  0.000  0.208-  31 1.94  33 1.94  22 2.00
  86  0.333  0.333  0.208-  32 1.94  31 1.94  23 2.00
  87  0.333  0.667  0.208-  33 1.94  32 1.94  24 2.00
  88  0.667  0.000  0.208-  34 1.94  36 1.94  25 2.00
  89  0.667  0.333  0.208-  35 1.94  34 1.94  26 2.00
  90  0.667  0.667  0.208-  36 1.94  35 1.94  27 2.00
  91  0.000  0.167  0.042-  20 1.94  19 1.94  28 2.00
  92  0.000  0.500  0.042-  20 1.94  21 1.94  29 2.00
  93  0.000  0.833  0.042-  21 1.94  19 1.94  30 2.00
  94  0.333  0.167  0.042-  23 1.94  22 1.94  31 2.00
  95  0.333  0.500  0.042-  23 1.94  24 1.94  32 2.00
  96  0.333  0.833  0.042-  24 1.94  22 1.94  33 2.00
  97  0.667  0.167  0.042-  26 1.94  25 1.94  34 2.00
  98  0.667  0.500  0.042-  26 1.94  27 1.94  35 2.00
  99  0.667  0.833  0.042-  27 1.94  25 1.94  36 2.00
 100  0.167  0.167  0.292-  31 1.94  28 1.94   1 2.00
 101  0.167  0.500  0.292-  32 1.94  29 1.94   2 2.00
 102  0.167  0.833  0.292-  33 1.94  30 1.94   3 2.00
 103  0.500  0.167  0.292-  31 1.94  34 1.94   4 2.00
 104  0.500  0.500  0.292-  32 1.94  35 1.94   5 2.00
 105  0.500  0.833  0.292-  33 1.94  36 1.94   6 2.00
 106  0.833  0.167  0.292-  34 1.94  28 1.94   7 2.00
 107  0.833  0.500  0.292-  35 1.94  29 1.94   8 2.00
 108  0.833  0.833  0.292-  36 1.94  30 1.94   9 2.00


IMPORTANT INFORMATION: All symmetrisations will be switched off!
NOSYMM: (Re-)initialisation of all symmetry stuff for point group C_1.


----------------------------------------------------------------------------------------

                                     Primitive cell

  volume of cell :    1243.1447

  direct lattice vectors                    reciprocal lattice vectors
    11.376843452  0.000000000  0.000000000     0.087897843  0.000000000  0.000000000
     0.000000000 11.376843452  0.000000000     0.000000000  0.087897843  0.000000000
     0.000000000  0.000000000  9.604574204     0.000000000  0.000000000  0.104117057

  length of vectors
    11.376843452 11.376843452  9.604574204     0.087897843  0.087897843  0.104117057

  position of ions in fractional coordinates (direct lattice)
     0.166666672  0.166666672  0.500000000
     0.166666672  0.500000000  0.500000000
     0.166666672  0.833333313  0.500000000
     0.500000000  0.166666672  0.500000000
     0.500000000  0.500000000  0.500000000
     0.500000000  0.833333313  0.500000000
     0.833333313  0.166666672  0.500000000
     0.833333313  0.500000000  0.500000000
     0.833333313  0.833333313  0.500000000
     0.166666672  0.000000000  0.750000000
     0.166666672  0.333333343  0.750000000
     0.166666672  0.666666687  0.750000000
     0.500000000  0.000000000  0.750000000
     0.500000000  0.333333343  0.750000000
     0.500000000  0.666666687  0.750000000
     0.833333313  0.000000000  0.750000000
     0.833333313  0.333333343  0.750000000
     0.833333313  0.666666687  0.750000000
     0.000000000  0.000000000  0.000000000
     0.000000000  0.333333343  0.000000000
     0.000000000  0.666666687  0.000000000
     0.333333343  0.000000000  0.000000000
     0.333333343  0.333333343  0.000000000
     0.333333343  0.666666687  0.000000000
     0.666666687  0.000000000  0.000000000
     0.666666687  0.333333343  0.000000000
     0.666666687  0.666666687  0.000000000
     0.000000000  0.166666672  0.250000000
     0.000000000  0.500000000  0.250000000
     0.000000000  0.833333313  0.250000000
     0.333333343  0.166666672  0.250000000
     0.333333343  0.500000000  0.250000000
     0.333333343  0.833333313  0.250000000
     0.666666687  0.166666672  0.250000000
     0.666666687  0.500000000  0.250000000
     0.666666687  0.833333313  0.250000000
     0.000000000  0.166666672  0.457898587
     0.000000000  0.500000000  0.457898587
     0.000000000  0.833333313  0.457898587
     0.333333343  0.166666672  0.457898587
     0.333333343  0.500000000  0.457898587
     0.333333343  0.833333313  0.457898587
     0.675456471  0.166666672  0.457898587
     0.666666687  0.500000000  0.457898587
     0.666666687  0.833333313  0.457898587
     0.166666672  0.166666672  0.707898617
     0.166666672  0.500000000  0.707898617
     0.166666672  0.833333313  0.707898617
     0.500000000  0.166666672  0.707898617
     0.500000000  0.500000000  0.707898617
     0.500000000  0.833333313  0.707898617
     0.833333313  0.166666672  0.707898617
     0.833333313  0.500000000  0.707898617
     0.833333313  0.833333313  0.707898617
     0.166666672  0.000000000  0.542101383
     0.166666672  0.333333343  0.542101383
     0.166666672  0.666666687  0.542101383
     0.500000000  0.000000000  0.542101383
     0.500000000  0.333333343  0.542101383
     0.500000000  0.666666687  0.542101383
     0.833333313  0.000000000  0.542101383
     0.833333313  0.333333343  0.542101383
     0.833333313  0.666666687  0.542101383
     0.000000000  0.000000000  0.792101383
     0.000000000  0.333333343  0.792101383
     0.000000000  0.666666687  0.792101383
     0.333333343  0.000000000  0.792101383
     0.333333343  0.333333343  0.792101383
     0.333333343  0.666666687  0.792101383
     0.666666687  0.000000000  0.792101383
     0.666666687  0.333333343  0.792101383
     0.666666687  0.666666687  0.792101383
     0.166666672  0.000000000  0.957898617
     0.166666672  0.333333343  0.957898617
     0.166666672  0.666666687  0.957898617
     0.500000000  0.000000000  0.957898617
     0.500000000  0.333333343  0.957898617
     0.500000000  0.666666687  0.957898617
     0.833333313  0.000000000  0.957898617
     0.833333313  0.333333343  0.957898617
     0.833333313  0.666666687  0.957898617
     0.000000000  0.000000000  0.207898602
     0.000000000  0.333333343  0.207898602
     0.000000000  0.666666687  0.207898602
     0.333333343  0.000000000  0.207898602
     0.333333343  0.333333343  0.207898602
     0.333333343  0.666666687  0.207898602
     0.666666687  0.000000000  0.207898602
     0.666666687  0.333333343  0.207898602
     0.666666687  0.666666687  0.207898602
     0.000000000  0.166666672  0.042101406
     0.000000000  0.500000000  0.042101406
     0.000000000  0.833333313  0.042101406
     0.333333343  0.166666672  0.042101406
     0.333333343  0.500000000  0.042101406
     0.333333343  0.833333313  0.042101406
     0.666666687  0.166666672  0.042101406
     0.666666687  0.500000000  0.042101406
     0.666666687  0.833333313  0.042101406
     0.166666672  0.166666672  0.292101413
     0.166666672  0.500000000  0.292101413
     0.166666672  0.833333313  0.292101413
     0.500000000  0.166666672  0.292101413
     0.500000000  0.500000000  0.292101413
     0.500000000  0.833333313  0.292101413
     0.833333313  0.166666672  0.292101413
     0.833333313  0.500000000  0.292101413
     0.833333313  0.833333313  0.292101413

  ion indices of the primitive-cell ions
   primitive index   ion index
                 1           1
                 2           2
                 3           3
                 4           4
                 5           5
                 6           6
                 7           7
                 8           8
                 9           9
                10          10
                11          11
                12          12
                13          13
                14          14
                15          15
                16          16
                17          17
                18          18
                19          19
                20          20
                21          21
                22          22
                23          23
                24          24
                25          25
                26          26
                27          27
                28          28
                29          29
                30          30
                31          31
                32          32
                33          33
                34          34
                35          35
                36          36
                37          37
                38          38
                39          39
                40          40
                41          41
                42          42
                43          43
                44          44
                45          45
                46          46
                47          47
                48          48
                49          49
                50          50
                51          51
                52          52
                53          53
                54          54
                55          55
                56          56
                57          57
                58          58
                59          59
                60          60
                61          61
                62          62
                63          63
                64          64
                65          65
                66          66
                67          67
                68          68
                69          69
                70          70
                71          71
                72          72
                73          73
                74          74
                75          75
                76          76
                77          77
                78          78
                79          79
                80          80
                81          81
                82          82
                83          83
                84          84
                85          85
                86          86
                87          87
                88          88
                89          89
                90          90
                91          91
                92          92
                93          93
                94          94
                95          95
                96          96
                97          97
                98          98
                99          99
               100         100
               101         101
               102         102
               103         103
               104         104
               105         105
               106         106
               107         107
               108         108

----------------------------------------------------------------------------------------



 KPOINTS: K-Points

Automatic generation of k-mesh.
 Grid dimensions read from file:
 generate k-points for:    2    2    2

 Generating k-lattice:

  Cartesian coordinates                     Fractional coordinates (reciprocal lattice)
     0.043948922  0.000000000  0.000000000     0.500000000  0.000000000  0.000000000
     0.000000000  0.043948922  0.000000000     0.000000000  0.500000000  0.000000000
     0.000000000  0.000000000  0.052058529     0.000000000  0.000000000  0.500000000

  Length of vectors
     0.043948922  0.043948922  0.052058529

  Shift w.r.t. Gamma in fractional coordinates (k-lattice)
     0.500000000  0.500000000  0.500000000


 Subroutine IBZKPT returns following result:
 ===========================================

 Found      4 irreducible k-points:

 Following reciprocal coordinates:
            Coordinates               Weight
  0.250000  0.250000  0.250000      2.000000
 -0.250000  0.250000  0.250000      2.000000
 -0.250000 -0.250000  0.250000      2.000000
  0.250000 -0.250000  0.250000      2.000000

 Following cartesian coordinates:
            Coordinates               Weight
  0.021974  0.021974  0.026029      2.000000
 -0.021974  0.021974  0.026029      2.000000
 -0.021974 -0.021974  0.026029      2.000000
  0.021974 -0.021974  0.026029      2.000000


 Subroutine IBZKPT_HF returns following result:
 ==============================================

 Found      8 k-points in 1st BZ
 the following      8 k-points will be used (e.g. in the exchange kernel)
 Following reciprocal coordinates:   # in IRBZ
  0.250000  0.250000  0.250000    0.12500000   1 t-inv F
 -0.250000  0.250000  0.250000    0.12500000   2 t-inv F
 -0.250000 -0.250000  0.250000    0.12500000   3 t-inv F
  0.250000 -0.250000  0.250000    0.12500000   4 t-inv F
 -0.250000 -0.250000 -0.250000    0.12500000   1 t-inv T
  0.250000 -0.250000 -0.250000    0.12500000   2 t-inv T
  0.250000  0.250000 -0.250000    0.12500000   3 t-inv T
 -0.250000  0.250000 -0.250000    0.12500000   4 t-inv T


--------------------------------------------------------------------------------------------------------




 Dimension of arrays:
   k-points           NKPTS =      4   k-points in BZ     NKDIM =      4   number of bands    NBANDS=    476
   number of dos      NEDOS =    301   number of ions     NIONS =    108
   non local maximal  LDIM  =      6   non local SUM 2l+1 LMDIM =     18
   total plane-waves  NPLWV = 150528
   max r-space proj   IRMAX =   1791   max aug-charges    IRDMAX=   4900
   dimension x,y,z NGX =    56 NGY =   56 NGZ =   48
   dimension x,y,z NGXF=   112 NGYF=  112 NGZF=   96
   support grid    NGXF=   112 NGYF=  112 NGZF=   96
   ions per type =              36  72
   NGX,Y,Z   is equivalent  to a cutoff of   8.18,  8.18,  8.31 a.u.
   NGXF,Y,Z  is equivalent  to a cutoff of  16.37, 16.37, 16.62 a.u.

 SYSTEM =  unknown system
 POSCAR =  Ti4 O8

 Startparameter for this run:
   NWRITE =      2    write-flag & timer
   PREC   = normal    normal or accurate (medium, high low for compatibility)
   ISTART =      0    job   : 0-new  1-cont  2-samecut
   ICHARG =      2    charge: 1-file 2-atom 10-const
   ISPIN  =      1    spin polarized calculation?
   LNONCOLLINEAR =      F non collinear calculations
   LSORBIT =      F    spin-orbit coupling
   INIWAV =      1    electr: 0-lowe 1-rand  2-diag
   LASPH  =      F    aspherical Exc in radial PAW
 Electronic Relaxation 1
   ENCUT  =  400.0 eV  29.40 Ry    5.42 a.u.  18.55 18.55 15.66*2*pi/ulx,y,z
   ENINI  =  400.0     initial cutoff
   ENAUG  =  605.4 eV  augmentation charge cutoff
   NELM   =     80;   NELMIN=  4; NELMDL= -5     # of ELM steps
   EDIFF  = 0.1E-06   stopping-criterion for ELM
   LREAL  =      T    real-space projection
   NLSPLINE    = F    spline interpolate recip. space projectors
   LCOMPAT=      F    compatible to vasp.4.4
   GGA_COMPAT  = T    GGA compatible to vasp.4.4-vasp.4.6
   LMAXPAW     = -100 max onsite density
   LMAXMIX     =    2 max onsite mixed and CHGCAR
   VOSKOWN=      0    Vosko Wilk Nusair interpolation
   ROPT   =   -0.00050  -0.00050
 Ionic relaxation
   EDIFFG = 0.1E-05   stopping-criterion for IOM
   NSW    =      0    number of steps for IOM
   NBLOCK =      1;   KBLOCK =      1    inner block; outer block
   IBRION =     -1    ionic relax: 0-MD 1-quasi-New 2-CG
   NFREE  =      0    steps in history (QN), initial steepest desc. (CG)
   ISIF   =      2    stress and relaxation
   IWAVPR =     10    prediction:  0-non 1-charg 2-wave 3-comb
   ISYM   =      0    0-nonsym 1-usesym 2-fastsym
   LCORR  =      T    Harris-Foulkes like correction to forces

   POTIM  = 0.5000    time-step for ionic-motion
   TEIN   =    0.0    initial temperature
   TEBEG  =    0.0;   TEEND  =   0.0 temperature during run
   SMASS  =  -3.00    Nose mass-parameter (am)
   estimated Nose-frequenzy (Omega)   =  0.10E-29 period in steps = 0.13E+47 mass=  -0.296E-26a.u.
   SCALEE = 1.0000    scale energy and forces
   NPACO  =    256;   APACO  = 10.0  distance and # of slots for P.C.
   PSTRESS=    0.0 pullay stress

  Mass of Ions in am
   POMASS =  47.88 16.00
  Ionic Valenz
   ZVAL   =  10.00  6.00
  Atomic Wigner-Seitz radii
   RWIGS  =  -1.00 -1.00
  virtual crystal weights
   VCA    =   1.00  1.00
   NELECT =     792.0000    total number of electrons
   NUPDOWN=      -1.0000    fix difference up-down

 DOS related values:
   EMIN   =  10.00;   EMAX   =-10.00  energy-range for DOS
   EFERMI =   0.00
   ISMEAR =     0;   SIGMA  =   0.10  broadening in eV -4-tet -1-fermi 0-gaus

 Electronic relaxation 2 (details)
   IALGO  =     38    algorithm
   LDIAG  =      T    sub-space diagonalisation (order eigenvalues)
   LSUBROT=      F    optimize rotation matrix (better conditioning)
   TURBO    =      0    0=normal 1=particle mesh
   IRESTART =      0    0=no restart 2=restart with 2 vectors
   NREBOOT  =      0    no. of reboots
   NMIN     =      0    reboot dimension
   EREF     =   0.00    reference energy to select bands
   IMIX   =      4    mixing-type and parameters
     AMIX     =   0.40;   BMIX     =  1.00
     AMIX_MAG =   1.60;   BMIX_MAG =  1.00
     AMIN     =   0.10
     WC   =   100.;   INIMIX=   1;  MIXPRE=   1;  MAXMIX= -45

 Intra band minimization:
   WEIMIN = 0.0000     energy-eigenvalue tresh-hold
   EBREAK =  0.53E-10  absolut break condition
   DEPER  =   0.30     relativ break condition

   TIME   =   0.40     timestep for ELM

  volume/ion in A,a.u.               =      11.51        77.68
  Fermi-wavevector in a.u.,A,eV,Ry     =   1.408670  2.662001 26.998745  1.984352
  Thomas-Fermi vector in A             =   2.530804

 Write flags
   LWAVE        =      F    write WAVECAR
   LDOWNSAMPLE  =      F    k-point downsampling of WAVECAR
   LCHARG       =      F    write CHGCAR
   LVTOT        =      F    write LOCPOT, total local potential
   LVHAR        =      F    write LOCPOT, Hartree potential only
   LELF         =      F    write electronic localiz. function (ELF)
   LORBIT       =      0    0 simple, 1 ext, 2 COOP (PROOUT), +10 PAW based schemes


 Dipole corrections
   LMONO  =      F    monopole corrections only (constant potential shift)
   LDIPOL =      F    correct potential (dipole corrections)
   IDIPOL =      0    1-x, 2-y, 3-z, 4-all directions
   EPSILON=  1.0000000 bulk dielectric constant

 Exchange correlation treatment:
   GGA     =    --    GGA type
   LEXCH   =     8    internal setting for exchange type
   LIBXC   =     F    Libxc
   VOSKOWN =     0    Vosko Wilk Nusair interpolation
   LHFCALC =     F    Hartree Fock is set to
   LHFONE  =     F    Hartree Fock one center treatment
   AEXX    =    0.0000 exact exchange contribution

 Linear response parameters
   LEPSILON=     T    determine dielectric tensor
   LRPA    =     F    only Hartree local field effects (RPA)
   LNABLA  =     F    use nabla operator in PAW spheres
   LVEL    =     F    velocity operator in full k-point grid
   CSHIFT  =0.1000    complex shift for real part using Kramers Kronig
   OMEGAMAX=  -1.0    maximum frequency
   DEG_THRESHOLD= 0.2000000E-02 threshold for treating states as degnerate
   RTIME   =   -0.100 relaxation time in fs
  (WPLASMAI=    0.000 imaginary part of plasma frequency in eV, 0.658/RTIME)
   DFIELD  = 0.0000000 0.0000000 0.0000000 field for delta impulse in time

  Optional k-point grid parameters
   LKPOINTS_OPT  =     F    use optional k-point grid
   KPOINTS_OPT_MODE=     1    mode for optional k-point grid

 Orbital magnetization related:
   ORBITALMAG=     F  switch on orbital magnetization
   LCHIMAG   =     F  perturbation theory with respect to B field
   DQ        =  0.001000  dq finite difference perturbation B field
   LLRAUG    =     F  two centre corrections for induced B field

 PEAD related settings:
   LPEAD      =     T    switch on PEAD
   IPEAD      =     4    finite difference order for dpsi/dk
   LCALCPOL   =     F    calculate macroscopic polarization
   LCALCEPS   =     F    calculate dielectric tensor
   EFIELD_PEAD=    0.0000    0.0000    0.0000
   SKIP_EDOTP =     F
   LRPA       =     F
   SKIP_SCF   =     F


--------------------------------------------------------------------------------------------------------


 Static calculation
 charge density and potential will be updated during run
 non-spin polarized calculation
 Variant of blocked Davidson
 Davidson routine will perform the subspace rotation
 perform sub-space diagonalisation
    after iterative eigenvector-optimisation
 modified Broyden-mixing scheme, WC =      100.0
 initial mixing is a Kerker type mixing with AMIX =  0.4000 and BMIX =      1.0000
 Hartree-type preconditioning will be used
 using additional bands           80
 real space projection scheme for non local part
 use partial core corrections
 calculate Harris-corrections to forces
   (improved forces if not selfconsistent)
 use gradient corrections
 use of overlap-Matrix (Vanderbilt PP)
 Gauss-broadening in eV      SIGMA  =   0.10


--------------------------------------------------------------------------------------------------------


  energy-cutoff  :      400.00
  volume of cell :     1243.14
      direct lattice vectors                 reciprocal lattice vectors
    11.376843452  0.000000000  0.000000000     0.087897843  0.000000000  0.000000000
     0.000000000 11.376843452  0.000000000     0.000000000  0.087897843  0.000000000
     0.000000000  0.000000000  9.604574204     0.000000000  0.000000000  0.104117057

  length of vectors
    11.376843452 11.376843452  9.604574204     0.087897843  0.087897843  0.104117057



 k-points in units of 2pi/SCALE and weight: K-Points
   0.02197446  0.02197446  0.02602926       0.250
  -0.02197446  0.02197446  0.02602926       0.250
  -0.02197446 -0.02197446  0.02602926       0.250
   0.02197446 -0.02197446  0.02602926       0.250

 k-points in reciprocal lattice and weights: K-Points
   0.25000000  0.25000000  0.25000000       0.250
  -0.25000000  0.25000000  0.25000000       0.250
  -0.25000000 -0.25000000  0.25000000       0.250
   0.25000000 -0.25000000  0.25000000       0.250

 position of ions in fractional coordinates (direct lattice)
   0.16666667  0.16666667  0.50000000
   0.16666667  0.50000000  0.50000000
   0.16666667  0.83333331  0.50000000
   0.50000000  0.16666667  0.50000000
   0.50000000  0.50000000  0.50000000
   0.50000000  0.83333331  0.50000000
   0.83333331  0.16666667  0.50000000
   0.83333331  0.50000000  0.50000000
   0.83333331  0.83333331  0.50000000
   0.16666667  0.00000000  0.75000000
   0.16666667  0.33333334  0.75000000
   0.16666667  0.66666669  0.75000000
   0.50000000  0.00000000  0.75000000
   0.50000000  0.33333334  0.75000000
   0.50000000  0.66666669  0.75000000
   0.83333331  0.00000000  0.75000000
   0.83333331  0.33333334  0.75000000
   0.83333331  0.66666669  0.75000000
   0.00000000  0.00000000  0.00000000
   0.00000000  0.33333334  0.00000000
   0.00000000  0.66666669  0.00000000
   0.33333334  0.00000000  0.00000000
   0.33333334  0.33333334  0.00000000
   0.33333334  0.66666669  0.00000000
   0.66666669  0.00000000  0.00000000
   0.66666669  0.33333334  0.00000000
   0.66666669  0.66666669  0.00000000
   0.00000000  0.16666667  0.25000000
   0.00000000  0.50000000  0.25000000
   0.00000000  0.83333331  0.25000000
   0.33333334  0.16666667  0.25000000
   0.33333334  0.50000000  0.25000000
   0.33333334  0.83333331  0.25000000
   0.66666669  0.16666667  0.25000000
   0.66666669  0.50000000  0.25000000
   0.66666669  0.83333331  0.25000000
   0.00000000  0.16666667  0.45789859
   0.00000000  0.50000000  0.45789859
   0.00000000  0.83333331  0.45789859
   0.33333334  0.16666667  0.45789859
   0.33333334  0.50000000  0.45789859
   0.33333334  0.83333331  0.45789859
   0.67545647  0.16666667  0.45789859
   0.66666669  0.50000000  0.45789859
   0.66666669  0.83333331  0.45789859
   0.16666667  0.16666667  0.70789862
   0.16666667  0.50000000  0.70789862
   0.16666667  0.83333331  0.70789862
   0.50000000  0.16666667  0.70789862
   0.50000000  0.50000000  0.70789862
   0.50000000  0.83333331  0.70789862
   0.83333331  0.16666667  0.70789862
   0.83333331  0.50000000  0.70789862
   0.83333331  0.83333331  0.70789862
   0.16666667  0.00000000  0.54210138
   0.16666667  0.33333334  0.54210138
   0.16666667  0.66666669  0.54210138
   0.50000000  0.00000000  0.54210138
   0.50000000  0.33333334  0.54210138
   0.50000000  0.66666669  0.54210138
   0.83333331  0.00000000  0.54210138
   0.83333331  0.33333334  0.54210138
   0.83333331  0.66666669  0.54210138
   0.00000000  0.00000000  0.79210138
   0.00000000  0.33333334  0.79210138
   0.00000000  0.66666669  0.79210138
   0.33333334  0.00000000  0.79210138
   0.33333334  0.33333334  0.79210138
   0.33333334  0.66666669  0.79210138
   0.66666669  0.00000000  0.79210138
   0.66666669  0.33333334  0.79210138
   0.66666669  0.66666669  0.79210138
   0.16666667  0.00000000  0.95789862
   0.16666667  0.33333334  0.95789862
   0.16666667  0.66666669  0.95789862
   0.50000000  0.00000000  0.95789862
   0.50000000  0.33333334  0.95789862
   0.50000000  0.66666669  0.95789862
   0.83333331  0.00000000  0.95789862
   0.83333331  0.33333334  0.95789862
   0.83333331  0.66666669  0.95789862
   0.00000000  0.00000000  0.20789860
   0.00000000  0.33333334  0.20789860
   0.00000000  0.66666669  0.20789860
   0.33333334  0.00000000  0.20789860
   0.33333334  0.33333334  0.20789860
   0.33333334  0.66666669  0.20789860
   0.66666669  0.00000000  0.20789860
   0.66666669  0.33333334  0.20789860
   0.66666669  0.66666669  0.20789860
   0.00000000  0.16666667  0.04210141
   0.00000000  0.50000000  0.04210141
   0.00000000  0.83333331  0.04210141
   0.33333334  0.16666667  0.04210141
   0.33333334  0.50000000  0.04210141
   0.33333334  0.83333331  0.04210141
   0.66666669  0.16666667  0.04210141
   0.66666669  0.50000000  0.04210141
   0.66666669  0.83333331  0.04210141
   0.16666667  0.16666667  0.29210141
   0.16666667  0.50000000  0.29210141
   0.16666667  0.83333331  0.29210141
   0.50000000  0.16666667  0.29210141
   0.50000000  0.50000000  0.29210141
   0.50000000  0.83333331  0.29210141
   0.83333331  0.16666667  0.29210141
   0.83333331  0.50000000  0.29210141
   0.83333331  0.83333331  0.29210141

 position of ions in cartesian coordinates  (Angst):
   1.89614063  1.89614063  4.80228710
   1.89614063  5.68842173  4.80228710
   1.89614063  9.48070265  4.80228710
   5.68842173  1.89614063  4.80228710
   5.68842173  5.68842173  4.80228710
   5.68842173  9.48070265  4.80228710
   9.48070265  1.89614063  4.80228710
   9.48070265  5.68842173  4.80228710
   9.48070265  9.48070265  4.80228710
   1.89614063  0.00000000  7.20343065
   1.89614063  3.79228126  7.20343065
   1.89614063  7.58456253  7.20343065
   5.68842173  0.00000000  7.20343065
   5.68842173  3.79228126  7.20343065
   5.68842173  7.58456253  7.20343065
   9.48070265  0.00000000  7.20343065
   9.48070265  3.79228126  7.20343065
   9.48070265  7.58456253  7.20343065
   0.00000000  0.00000000  0.00000000
   0.00000000  3.79228126  0.00000000
   0.00000000  7.58456253  0.00000000
   3.79228126  0.00000000  0.00000000
   3.79228126  3.79228126  0.00000000
   3.79228126  7.58456253  0.00000000
   7.58456253  0.00000000  0.00000000
   7.58456253  3.79228126  0.00000000
   7.58456253  7.58456253  0.00000000
   0.00000000  1.89614063  2.40114355
   0.00000000  5.68842173  2.40114355
   0.00000000  9.48070265  2.40114355
   3.79228126  1.89614063  2.40114355
   3.79228126  5.68842173  2.40114355
   3.79228126  9.48070265  2.40114355
   7.58456253  1.89614063  2.40114355
   7.58456253  5.68842173  2.40114355
   7.58456253  9.48070265  2.40114355
   0.00000000  1.89614063  4.39792096
   0.00000000  5.68842173  4.39792096
   0.00000000  9.48070265  4.39792096
   3.79228126  1.89614063  4.39792096
   3.79228126  5.68842173  4.39792096
   3.79228126  9.48070265  4.39792096
   7.68456253  1.89614063  4.39792096
   7.58456253  5.68842173  4.39792096
   7.58456253  9.48070265  4.39792096
   1.89614063  1.89614063  6.79906479
   1.89614063  5.68842173  6.79906479
   1.89614063  9.48070265  6.79906479
   5.68842173  1.89614063  6.79906479
   5.68842173  5.68842173  6.79906479
   5.68842173  9.48070265  6.79906479
   9.48070265  1.89614063  6.79906479
   9.48070265  5.68842173  6.79906479
   9.48070265  9.48070265  6.79906479
   1.89614063  0.00000000  5.20665296
   1.89614063  3.79228126  5.20665296
   1.89614063  7.58456253  5.20665296
   5.68842173  0.00000000  5.20665296
   5.68842173  3.79228126  5.20665296
   5.68842173  7.58456253  5.20665296
   9.48070265  0.00000000  5.20665296
   9.48070265  3.79228126  5.20665296
   9.48070265  7.58456253  5.20665296
   0.00000000  0.00000000  7.60779651
   0.00000000  3.79228126  7.60779651
   0.00000000  7.58456253  7.60779651
   3.79228126  0.00000000  7.60779651
   3.79228126  3.79228126  7.60779651
   3.79228126  7.58456253  7.60779651
   7.58456253  0.00000000  7.60779651
   7.58456253  3.79228126  7.60779651
   7.58456253  7.58456253  7.60779651
   1.89614063  0.00000000  9.20020834
   1.89614063  3.79228126  9.20020834
   1.89614063  7.58456253  9.20020834
   5.68842173  0.00000000  9.20020834
   5.68842173  3.79228126  9.20020834
   5.68842173  7.58456253  9.20020834
   9.48070265  0.00000000  9.20020834
   9.48070265  3.79228126  9.20020834
   9.48070265  7.58456253  9.20020834
   0.00000000  0.00000000  1.99677755
   0.00000000  3.79228126  1.99677755
   0.00000000  7.58456253  1.99677755
   3.79228126  0.00000000  1.99677755
   3.79228126  3.79228126  1.99677755
   3.79228126  7.58456253  1.99677755
   7.58456253  0.00000000  1.99677755
   7.58456253  3.79228126  1.99677755
   7.58456253  7.58456253  1.99677755
   0.00000000  1.89614063  0.40436607
   0.00000000  5.68842173  0.40436607
   0.00000000  9.48070265  0.40436607
   3.79228126  1.89614063  0.40436607
   3.79228126  5.68842173  0.40436607
   3.79228126  9.48070265  0.40436607
   7.58456253  1.89614063  0.40436607
   7.58456253  5.68842173  0.40436607
   7.58456253  9.48070265  0.40436607
   1.89614063  1.89614063  2.80550970
   1.89614063  5.68842173  2.80550970
   1.89614063  9.48070265  2.80550970
   5.68842173  1.89614063  2.80550970
   5.68842173  5.68842173  2.80550970
   5.68842173  9.48070265  2.80550970
   9.48070265  1.89614063  2.80550970
   9.48070265  5.68842173  2.80550970
   9.48070265  9.48070265  2.80550970



--------------------------------------------------------------------------------------------------------


 k-point   1 :   0.2500 0.2500 0.2500  plane waves:   22590
 k-point   2 :  -0.2500 0.2500 0.2500  plane waves:   22590
 k-point   3 :  -0.2500-0.2500 0.2500  plane waves:   22590
 k-point   4 :   0.2500-0.2500 0.2500  plane waves:   22590

 maximum and minimum number of plane-waves per node :     22590    22590

 maximum number of plane-waves:     22590
 maximum index in each direction:
   IXMAX=   18   IYMAX=   18   IZMAX=   15
   IXMIN=  -18   IYMIN=  -18   IZMIN=  -15


 serial   3D FFT for wavefunctions
 parallel 3D FFT for charge:
    minimum data exchange during FFTs selected (reduces bandwidth)


 total amount of memory used by VASP MPI-rank0   266725. kBytes
=======================================================================

   base      :      30000. kBytes
   nonlr-proj:      19556. kBytes
   fftplans  :      10927. kBytes
   grid      :      23181. kBytes
   one-center:       1679. kBytes
   wavefun   :     181382. kBytes

     INWAV:  cpu time      0.0001: real time      0.0005
 Broyden mixing: mesh for mixing (old mesh)
   NGX = 37   NGY = 37   NGZ = 31
  (NGX  =112   NGY  =112   NGZ  = 96)
  gives a total of  42439 points

 initial charge density was supplied:
 charge density of overlapping atoms calculated
 number of electron     792.0000000 magnetization
 keeping initial charge density in first step


--------------------------------------------------------------------------------------------------------


 Maximum index for non-local projection operator         1743
 Maximum index for augmentation-charges         1189 (set IRDMAX)


--------------------------------------------------------------------------------------------------------


 First call to EWALD:  gamma=   0.165
 Maximum number of real-space cells 3x 3x 3
 Maximum number of reciprocal cells 3x 3x 3

    FEWALD:  cpu time      0.0037: real time      0.0040


--------------------------------------- Iteration      1(   1)  ---------------------------------------


    POTLOK:  cpu time      0.1946: real time      0.1967
    SETDIJ:  cpu time      0.0104: real time      0.0106
     EDDAV:  cpu time     17.2925: real time     17.4307
       DOS:  cpu time      0.0036: real time      0.0037
    --------------------------------------------
      LOOP:  cpu time     17.5011: real time     17.6417

 eigenvalue-minimisations  :  3824
 total energy-change (2. order) : 0.1156019E+05  (-0.3305551E+05)
 number of electron     792.0000000 magnetization
 augmentation part      792.0000000 magnetization

 Free energy of the ion-electron system (eV)
  ---------------------------------------------------
  alpha Z        PSCENC =      3563.47650690
  Ewald energy   TEWEN  =    -48586.62102756
  -Hartree energ DENC   =    -18842.71028936
  -exchange      EXHF   =         0.00000000
  -V(xc)+E(xc)   XCENC  =      3286.87489162
  PAW double counting   =     54431.09303398   -54537.79254336
  entropy T*S    EENTRO =        -0.14399924
  eigenvalues    EBANDS =      3589.61236526
  atomic energy  EATOM  =     68656.39924158
  Solvation  Ediel_sol  =         0.00000000
  ---------------------------------------------------
  free energy    TOTEN  =     11560.18817982 eV

  energy without entropy =    11560.33217905  energy(sigma->0) =    11560.26017944


--------------------------------------------------------------------------------------------------------




--------------------------------------- Iteration      1(   2)  ---------------------------------------


     EDDAV:  cpu time     17.7678: real time     17.8893
       DOS:  cpu time      0.0012: real time      0.0012
    --------------------------------------------
      LOOP:  cpu time     17.7690: real time     17.8905

 eigenvalue-minimisations  :  3808
 total energy-change (2. order) :-0.9987303E+04  (-0.9556859E+04)
 number of electron     792.0000000 magnetization
 augmentation part      792.0000000 magnetization

 Free energy of the ion-electron system (eV)
  ---------------------------------------------------
  alpha Z        PSCENC =      3563.47650690
  Ewald energy   TEWEN  =    -48586.62102756
  -Hartree energ DENC   =    -18842.71028936
  -exchange      EXHF   =         0.00000000
  -V(xc)+E(xc)   XCENC  =      3286.87489162
  PAW double counting   =     54431.09303398   -54537.79254336
  entropy T*S    EENTRO =        -0.28792789
  eigenvalues    EBANDS =     -6397.54720022
  atomic energy  EATOM  =     68656.39924158
  Solvation  Ediel_sol  =         0.00000000
  ---------------------------------------------------
  free energy    TOTEN  =      1572.88468569 eV

  energy without entropy =     1573.17261358  energy(sigma->0) =     1573.02864963


--------------------------------------------------------------------------------------------------------




--------------------------------------- Iteration      1(   3)  ---------------------------------------


     EDDAV:  cpu time     17.8339: real time     17.9606
       DOS:  cpu time      0.0007: real time      0.0007
    --------------------------------------------
      LOOP:  cpu time     17.8346: real time     17.9613

 eigenvalue-minimisations  :  4416
 total energy-change (2. order) :-0.2641587E+04  (-0.2569945E+04)
 number of electron     792.0000000 magnetization
 augmentation part      792.0000000 magnetization

 Free energy of the ion-electron system (eV)
  ---------------------------------------------------
  alpha Z        PSCENC =      3563.47650690
  Ewald energy   TEWEN  =    -48586.62102756
  -Hartree energ DENC   =    -18842.71028936
  -exchange      EXHF   =         0.00000000
  -V(xc)+E(xc)   XCENC  =      3286.87489162
  PAW double counting   =     54431.09303398   -54537.79254336
  entropy T*S    EENTRO =        -0.00000000
  eigenvalues    EBANDS =     -9039.42181852
  atomic energy  EATOM  =     68656.39924158
  Solvation  Ediel_sol  =         0.00000000
  ---------------------------------------------------
  free energy    TOTEN  =     -1068.70200473 eV

  energy without entropy =    -1068.70200473  energy(sigma->0) =    -1068.70200473


--------------------------------------------------------------------------------------------------------




--------------------------------------- Iteration      1(   4)  ---------------------------------------


     EDDAV:  cpu time     22.5048: real time     22.6583
       DOS:  cpu time      0.0008: real time      0.0008
    --------------------------------------------
      LOOP:  cpu time     22.5056: real time     22.6591

 eigenvalue-minimisations  :  5008
 total energy-change (2. order) :-0.2043924E+03  (-0.2032848E+03)
 number of electron     792.0000000 magnetization
 augmentation part      792.0000000 magnetization

 Free energy of the ion-electron system (eV)
  ---------------------------------------------------
  alpha Z        PSCENC =      3563.47650690
  Ewald energy   TEWEN  =    -48586.62102756
  -Hartree energ DENC   =    -18842.71028936
  -exchange      EXHF   =         0.00000000
  -V(xc)+E(xc)   XCENC  =      3286.87489162
  PAW double counting   =     54431.09303398   -54537.79254336
  entropy T*S    EENTRO =        -0.00000000
  eigenvalues    EBANDS =     -9243.81420728
  atomic energy  EATOM  =     68656.39924158
  Solvation  Ediel_sol  =         0.00000000
  ---------------------------------------------------
  free energy    TOTEN  =     -1273.09439348 eV

  energy without entropy =    -1273.09439348  energy(sigma->0) =    -1273.09439348


--------------------------------------------------------------------------------------------------------




--------------------------------------- Iteration      1(   5)  ---------------------------------------


     EDDAV:  cpu time     22.5267: real time     22.6770
       DOS:  cpu time      0.0007: real time      0.0007
    CHARGE:  cpu time      0.2511: real time      0.2539
    MIXING:  cpu time      0.0155: real time      0.0158
    --------------------------------------------
      LOOP:  cpu time     22.7941: real time     22.9474

 eigenvalue-minimisations  :  5000
 total energy-change (2. order) :-0.5529580E+01  (-0.5517950E+01)
 number of electron     792.0003051 magnetization
 augmentation part      202.2537741 magnetization

 Broyden mixing:
  rms(total) = 0.17251E+02    rms(broyden)= 0.17249E+02
  rms(prec ) = 0.19187E+02
  weight for this iteration     100.00

 Free energy of the ion-electron system (eV)
  ---------------------------------------------------
  alpha Z        PSCENC =      3563.47650690
  Ewald energy   TEWEN  =    -48586.62102756
  -Hartree energ DENC   =    -18842.71028936
  -exchange      EXHF   =         0.00000000
  -V(xc)+E(xc)   XCENC  =      3286.87489162
  PAW double counting   =     54431.09303398   -54537.79254336
  entropy T*S    EENTRO =        -0.00000000
  eigenvalues    EBANDS =     -9249.34378706
  atomic energy  EATOM  =     68656.39924158
  Solvation  Ediel_sol  =         0.00000000
  ---------------------------------------------------
  free energy    TOTEN  =     -1278.62397326 eV

  energy without entropy =    -1278.62397326  energy(sigma->0) =    -1278.62397326


--------------------------------------------------------------------------------------------------------




--------------------------------------- Iteration      1(   6)  ---------------------------------------


    POTLOK:  cpu time      0.2440: real time      0.2467
    SETDIJ:  cpu time      0.0107: real time      0.0109
     EDDAV:  cpu time     21.1111: real time     21.2566
       DOS:  cpu time      0.0006: real time      0.0006
    CHARGE:  cpu time      0.2509: real time      0.2534
    MIXING:  cpu time      0.0113: real time      0.0116
    --------------------------------------------
      LOOP:  cpu time     21.6286: real time     21.7799

 eigenvalue-minimisations  :  4968
 total energy-change (2. order) : 0.3023166E+03  (-0.1976159E+03)
 number of electron     792.0002459 magnetization
 augmentation part      214.1016857 magnetization

 Broyden mixing:
  rms(total) = 0.53107E+01    rms(broyden)= 0.53058E+01
  rms(prec ) = 0.58370E+01
  weight for this iteration     100.00

 eigenvalues of (default mixing * dielectric matrix)
  average eigenvalue GAMMA=   0.9656
  0.9656

 Free energy of the ion-electron system (eV)
  ---------------------------------------------------
  alpha Z        PSCENC =      3563.47650690
  Ewald energy   TEWEN  =    -48586.62102756
  -Hartree energ DENC   =    -19067.93101528
  -exchange      EXHF   =         0.00000000
  -V(xc)+E(xc)   XCENC  =      3337.90164958
  PAW double counting   =     68264.44238798   -68496.78766058
  entropy T*S    EENTRO =        -0.00000000
  eigenvalues    EBANDS =     -8647.18742589
  atomic energy  EATOM  =     68656.39924158
  Solvation  Ediel_sol  =         0.00000000
  ---------------------------------------------------
  free energy    TOTEN  =      -976.30734327 eV

  energy without entropy =     -976.30734327  energy(sigma->0) =     -976.30734327


--------------------------------------------------------------------------------------------------------




--------------------------------------- Iteration      1(   7)  ---------------------------------------


    POTLOK:  cpu time      0.2046: real time      0.2063
    SETDIJ:  cpu time      0.0122: real time      0.0123
     EDDAV:  cpu time     22.2269: real time     22.3835
       DOS:  cpu time      0.0006: real time      0.0006
    CHARGE:  cpu time      0.2504: real time      0.2538
    MIXING:  cpu time      0.0146: real time      0.0316
    --------------------------------------------
      LOOP:  cpu time     22.7093: real time     22.8880

 eigenvalue-minimisations  :  5328
 total energy-change (2. order) : 0.4317324E+01  (-0.2851953E+02)
 number of electron     792.0002649 magnetization
 augmentation part      207.3433970 magnetization

 Broyden mixing:
  rms(total) = 0.45896E+01    rms(broyden)= 0.45894E+01
  rms(prec ) = 0.47824E+01
  weight for this iteration     100.00

 eigenvalues of (default mixing * dielectric matrix)
  average eigenvalue GAMMA=   1.8410
  0.7379  2.9441

 Free energy of the ion-electron system (eV)
  ---------------------------------------------------
  alpha Z        PSCENC =      3563.47650690
  Ewald energy   TEWEN  =    -48586.62102756
  -Hartree energ DENC   =    -18910.14021697
  -exchange      EXHF   =         0.00000000
  -V(xc)+E(xc)   XCENC  =      3318.65112772
  PAW double counting   =     75273.95123894   -75517.32210922
  entropy T*S    EENTRO =        -0.00000000
  eigenvalues    EBANDS =     -8770.38478025
  atomic energy  EATOM  =     68656.39924158
  Solvation  Ediel_sol  =         0.00000000
  ---------------------------------------------------
  free energy    TOTEN  =      -971.99001887 eV

  energy without entropy =     -971.99001887  energy(sigma->0) =     -971.99001887


--------------------------------------------------------------------------------------------------------




--------------------------------------- Iteration      1(   8)  ---------------------------------------


    POTLOK:  cpu time      0.2478: real time      0.2505
    SETDIJ:  cpu time      0.0084: real time      0.0086
     EDDAV:  cpu time     21.2462: real time     21.3915
       DOS:  cpu time      0.0006: real time      0.0006
    CHARGE:  cpu time      0.2425: real time      0.2452
    MIXING:  cpu time      0.0152: real time      0.0154
    --------------------------------------------
      LOOP:  cpu time     21.7607: real time     21.9117

 eigenvalue-minimisations  :  5016
 total energy-change (2. order) :-0.9764435E-01  (-0.1100460E+02)
 number of electron     792.0002585 magnetization
 augmentation part      215.5591612 magnetization

 Broyden mixing:
  rms(total) = 0.33502E+01    rms(broyden)= 0.33501E+01
  rms(prec ) = 0.36518E+01
  weight for this iteration     100.00

 eigenvalues of (default mixing * dielectric matrix)
  average eigenvalue GAMMA=   1.2335
  2.1833  0.9219  0.5954

 Free energy of the ion-electron system (eV)
  ---------------------------------------------------
  alpha Z        PSCENC =      3563.47650690
  Ewald energy   TEWEN  =    -48586.62102756
  -Hartree energ DENC   =    -18534.98859229
  -exchange      EXHF   =         0.00000000
  -V(xc)+E(xc)   XCENC  =      3303.95313694
  PAW double counting   =     93820.07577823   -94135.51244604
  entropy T*S    EENTRO =        -0.00000000
  eigenvalues    EBANDS =     -9058.87026097
  atomic energy  EATOM  =     68656.39924158
  Solvation  Ediel_sol  =         0.00000000
  ---------------------------------------------------
  free energy    TOTEN  =      -972.08766322 eV

  energy without entropy =     -972.08766322  energy(sigma->0) =     -972.08766322


--------------------------------------------------------------------------------------------------------




--------------------------------------- Iteration      1(   9)  ---------------------------------------


    POTLOK:  cpu time      0.2201: real time      0.2221
    SETDIJ:  cpu time      0.0184: real time      0.0185
     EDDAV:  cpu time     22.2469: real time     22.4005
       DOS:  cpu time      0.0006: real time      0.0006
    CHARGE:  cpu time      0.2484: real time      0.2514
    MIXING:  cpu time      0.0162: real time      0.0164
    --------------------------------------------
      LOOP:  cpu time     22.7506: real time     22.9095

 eigenvalue-minimisations  :  5104
 total energy-change (2. order) : 0.5550873E+01  (-0.3412510E+01)
 number of electron     792.0002631 magnetization
 augmentation part      211.5089981 magnetization

 Broyden mixing:
  rms(total) = 0.28339E+00    rms(broyden)= 0.28271E+00
  rms(prec ) = 0.30892E+00
  weight for this iteration     100.00

 eigenvalues of (default mixing * dielectric matrix)
  average eigenvalue GAMMA=   1.1095
  2.1631  0.8131  0.8131  0.6487

 Free energy of the ion-electron system (eV)
  ---------------------------------------------------
  alpha Z        PSCENC =      3563.47650690
  Ewald energy   TEWEN  =    -48586.62102756
  -Hartree energ DENC   =    -18677.38335226
  -exchange      EXHF   =         0.00000000
  -V(xc)+E(xc)   XCENC  =      3308.77016852
  PAW double counting   =     88654.56662844   -88951.13450615
  entropy T*S    EENTRO =        -0.00000000
  eigenvalues    EBANDS =     -8934.61044927
  atomic energy  EATOM  =     68656.39924158
  Solvation  Ediel_sol  =         0.00000000
  ---------------------------------------------------
  free energy    TOTEN  =      -966.53678981 eV

  energy without entropy =     -966.53678981  energy(sigma->0) =     -966.53678981


--------------------------------------------------------------------------------------------------------




--------------------------------------- Iteration      1(  10)  ---------------------------------------


    POTLOK:  cpu time      0.2442: real time      0.2468
    SETDIJ:  cpu time      0.0104: real time      0.0105
     EDDAV:  cpu time     21.3523: real time     21.5007
       DOS:  cpu time      0.0006: real time      0.0006
    CHARGE:  cpu time      0.2457: real time      0.2486
    MIXING:  cpu time      0.0168: real time      0.0170
    --------------------------------------------
      LOOP:  cpu time     21.8701: real time     22.0241

 eigenvalue-minimisations  :  5256
 total energy-change (2. order) :-0.3005426E-01  (-0.7908556E-01)
 number of electron     792.0002627 magnetization
 augmentation part      211.4806755 magnetization

 Broyden mixing:
  rms(total) = 0.19877E+00    rms(broyden)= 0.19870E+00
  rms(prec ) = 0.21537E+00
  weight for this iteration     100.00

 eigenvalues of (default mixing * dielectric matrix)
  average eigenvalue GAMMA=   1.2800
  2.4620  1.6993  1.0718  0.6500  0.5169

 Free energy of the ion-electron system (eV)
  ---------------------------------------------------
  alpha Z        PSCENC =      3563.47650690
  Ewald energy   TEWEN  =    -48586.62102756
  -Hartree energ DENC   =    -18700.70049545
  -exchange      EXHF   =         0.00000000
  -V(xc)+E(xc)   XCENC  =      3310.36410267
  PAW double counting   =     88733.12895036   -89031.46052485
  entropy T*S    EENTRO =        -0.00000000
  eigenvalues    EBANDS =     -8911.15359771
  atomic energy  EATOM  =     68656.39924158
  Solvation  Ediel_sol  =         0.00000000
  ---------------------------------------------------
  free energy    TOTEN  =      -966.56684407 eV

  energy without entropy =     -966.56684407  energy(sigma->0) =     -966.56684407


--------------------------------------------------------------------------------------------------------




--------------------------------------- Iteration      1(  11)  ---------------------------------------


    POTLOK:  cpu time      0.1974: real time      0.1995
    SETDIJ:  cpu time      0.0165: real time      0.0166
     EDDAV:  cpu time     20.6739: real time     20.8164
       DOS:  cpu time      0.0006: real time      0.0006
    CHARGE:  cpu time      0.2452: real time      0.2467
    MIXING:  cpu time      0.0181: real time      0.0183
    --------------------------------------------
      LOOP:  cpu time     21.1518: real time     21.2981

 eigenvalue-minimisations  :  4488
 total energy-change (2. order) :-0.7068594E-01  (-0.5381893E-01)
 number of electron     792.0002616 magnetization
 augmentation part      211.5014889 magnetization

 Broyden mixing:
  rms(total) = 0.22758E+00    rms(broyden)= 0.22754E+00
  rms(prec ) = 0.27497E+00
  weight for this iteration     100.00

 eigenvalues of (default mixing * dielectric matrix)
  average eigenvalue GAMMA=   1.2612
  2.5424  1.8063  1.0186  1.0186  0.5906  0.5906

 Free energy of the ion-electron system (eV)
  ---------------------------------------------------
  alpha Z        PSCENC =      3563.47650690
  Ewald energy   TEWEN  =    -48586.62102756
  -Hartree energ DENC   =    -18742.08237496
  -exchange      EXHF   =         0.00000000
  -V(xc)+E(xc)   XCENC  =      3313.30153516
  PAW double counting   =     89200.42592679   -89503.10237159
  entropy T*S    EENTRO =        -0.00000000
  eigenvalues    EBANDS =     -8868.43496632
  atomic energy  EATOM  =     68656.39924158
  Solvation  Ediel_sol  =         0.00000000
  ---------------------------------------------------
  free energy    TOTEN  =      -966.63753001 eV

  energy without entropy =     -966.63753001  energy(sigma->0) =     -966.63753001


--------------------------------------------------------------------------------------------------------




--------------------------------------- Iteration      1(  12)  ---------------------------------------


    POTLOK:  cpu time      0.2393: real time      0.2417
    SETDIJ:  cpu time      0.0157: real time      0.0158
     EDDAV:  cpu time     21.0010: real time     21.1465
       DOS:  cpu time      0.0007: real time      0.0007
    CHARGE:  cpu time      0.2422: real time      0.2438
    MIXING:  cpu time      0.0161: real time      0.0163
    --------------------------------------------
      LOOP:  cpu time     21.5151: real time     21.6648

 eigenvalue-minimisations  :  5272
 total energy-change (2. order) : 0.6175438E-01  (-0.5638878E-01)
 number of electron     792.0002626 magnetization
 augmentation part      211.1800501 magnetization

 Broyden mixing:
  rms(total) = 0.54896E-01    rms(broyden)= 0.54765E-01
  rms(prec ) = 0.65036E-01
  weight for this iteration     100.00

 eigenvalues of (default mixing * dielectric matrix)
  average eigenvalue GAMMA=   1.2246
  2.5878  1.6097  1.3996  1.0237  0.7919  0.5798  0.5798

 Free energy of the ion-electron system (eV)
  ---------------------------------------------------
  alpha Z        PSCENC =      3563.47650690
  Ewald energy   TEWEN  =    -48586.62102756
  -Hartree energ DENC   =    -18738.62740517
  -exchange      EXHF   =         0.00000000
  -V(xc)+E(xc)   XCENC  =      3312.60022094
  PAW double counting   =     89241.44788169   -89543.30972160
  entropy T*S    EENTRO =        -0.00000000
  eigenvalues    EBANDS =     -8871.94147241
  atomic energy  EATOM  =     68656.39924158
  Solvation  Ediel_sol  =         0.00000000
  ---------------------------------------------------
  free energy    TOTEN  =      -966.57577563 eV

  energy without entropy =     -966.57577563  energy(sigma->0) =     -966.57577563


--------------------------------------------------------------------------------------------------------




--------------------------------------- Iteration      1(  13)  ---------------------------------------


    POTLOK:  cpu time      0.2243: real time      0.2263
    SETDIJ:  cpu time      0.0137: real time      0.0138
     EDDAV:  cpu time     24.2166: real time     24.3842
       DOS:  cpu time      0.0007: real time      0.0007
    CHARGE:  cpu time      0.2433: real time      0.2457
    MIXING:  cpu time      0.0177: real time      0.0179
    --------------------------------------------
      LOOP:  cpu time     24.7163: real time     24.8886

 eigenvalue-minimisations  :  5328
 total energy-change (2. order) : 0.1422875E-02  (-0.1964016E-02)
 number of electron     792.0002625 magnetization
 augmentation part      211.2272924 magnetization

 Broyden mixing:
  rms(total) = 0.22229E-01    rms(broyden)= 0.22220E-01
  rms(prec ) = 0.26841E-01
  weight for this iteration     100.00

 eigenvalues of (default mixing * dielectric matrix)
  average eigenvalue GAMMA=   1.1936
  2.5943  1.7080  1.7080  0.9542  0.7068  0.7068  0.6116  0.5590

 Free energy of the ion-electron system (eV)
  ---------------------------------------------------
  alpha Z        PSCENC =      3563.47650690
  Ewald energy   TEWEN  =    -48586.62102756
  -Hartree energ DENC   =    -18739.20378693
  -exchange      EXHF   =         0.00000000
  -V(xc)+E(xc)   XCENC  =      3312.68292248
  PAW double counting   =     89266.15329858   -89568.01967984
  entropy T*S    EENTRO =        -0.00000000
  eigenvalues    EBANDS =     -8871.44182796
  atomic energy  EATOM  =     68656.39924158
  Solvation  Ediel_sol  =         0.00000000
  ---------------------------------------------------
  free energy    TOTEN  =      -966.57435275 eV

  energy without entropy =     -966.57435275  energy(sigma->0) =     -966.57435275


--------------------------------------------------------------------------------------------------------




--------------------------------------- Iteration      1(  14)  ---------------------------------------


    POTLOK:  cpu time      0.2263: real time      0.2282
    SETDIJ:  cpu time      0.0138: real time      0.0139
     EDDAV:  cpu time     19.9120: real time     20.0496
       DOS:  cpu time      0.0007: real time      0.0007
    CHARGE:  cpu time      0.2346: real time      0.2359
    MIXING:  cpu time      0.0131: real time      0.0132
    --------------------------------------------
      LOOP:  cpu time     20.4003: real time     20.5413

 eigenvalue-minimisations  :  5304
 total energy-change (2. order) : 0.2493707E-03  (-0.1459622E-03)
 number of electron     792.0002624 magnetization
 augmentation part      211.2351963 magnetization

 Broyden mixing:
  rms(total) = 0.11917E-01    rms(broyden)= 0.11916E-01
  rms(prec ) = 0.14234E-01
  weight for this iteration     100.00

 eigenvalues of (default mixing * dielectric matrix)
  average eigenvalue GAMMA=   1.2389
  2.5645  1.9073  1.9073  1.0500  0.9591  0.9591  0.5747  0.5747  0.6530

 Free energy of the ion-electron system (eV)
  ---------------------------------------------------
  alpha Z        PSCENC =      3563.47650690
  Ewald energy   TEWEN  =    -48586.62102756
  -Hartree energ DENC   =    -18740.21297169
  -exchange      EXHF   =         0.00000000
  -V(xc)+E(xc)   XCENC  =      3312.75043648
  PAW double counting   =     89258.25028845   -89560.02074734
  entropy T*S    EENTRO =        -0.00000000
  eigenvalues    EBANDS =     -8870.59583020
  atomic energy  EATOM  =     68656.39924158
  Solvation  Ediel_sol  =         0.00000000
  ---------------------------------------------------
  free energy    TOTEN  =      -966.57410338 eV

  energy without entropy =     -966.57410338  energy(sigma->0) =     -966.57410338


--------------------------------------------------------------------------------------------------------




--------------------------------------- Iteration      1(  15)  ---------------------------------------


    POTLOK:  cpu time      0.1954: real time      0.1975
    SETDIJ:  cpu time      0.0144: real time      0.0144
     EDDAV:  cpu time     24.7557: real time     24.9211
       DOS:  cpu time      0.0006: real time      0.0006
    CHARGE:  cpu time      0.2449: real time      0.2462
    MIXING:  cpu time      0.0178: real time      0.0180
    --------------------------------------------
      LOOP:  cpu time     25.2289: real time     25.3978

 eigenvalue-minimisations  :  5304
 total energy-change (2. order) :-0.9846756E-04  (-0.7600691E-04)
 number of electron     792.0002624 magnetization
 augmentation part      211.2319273 magnetization

 Broyden mixing:
  rms(total) = 0.84982E-02    rms(broyden)= 0.84952E-02
  rms(prec ) = 0.10359E-01
  weight for this iteration     100.00

 eigenvalues of (default mixing * dielectric matrix)
  average eigenvalue GAMMA=   1.2304
  2.6775  2.3729  1.9793  0.8999  0.8999  0.8890  0.8890  0.5813  0.5813  0.5340

 Free energy of the ion-electron system (eV)
  ---------------------------------------------------
  alpha Z        PSCENC =      3563.47650690
  Ewald energy   TEWEN  =    -48586.62102756
  -Hartree energ DENC   =    -18741.34154119
  -exchange      EXHF   =         0.00000000
  -V(xc)+E(xc)   XCENC  =      3312.80529401
  PAW double counting   =     89239.85477531   -89541.43837300
  entropy T*S    EENTRO =        -0.00000000
  eigenvalues    EBANDS =     -8869.70907789
  atomic energy  EATOM  =     68656.39924158
  Solvation  Ediel_sol  =         0.00000000
  ---------------------------------------------------
  free energy    TOTEN  =      -966.57420185 eV

  energy without entropy =     -966.57420185  energy(sigma->0) =     -966.57420185


--------------------------------------------------------------------------------------------------------




--------------------------------------- Iteration      1(  16)  ---------------------------------------


    POTLOK:  cpu time      0.2032: real time      0.2048
    SETDIJ:  cpu time      0.0143: real time      0.0149
     EDDAV:  cpu time     20.1147: real time     20.2553
       DOS:  cpu time      0.0007: real time      0.0007
    CHARGE:  cpu time      0.2473: real time      0.2487
    MIXING:  cpu time      0.0193: real time      0.0195
    --------------------------------------------
      LOOP:  cpu time     20.5995: real time     20.7440

 eigenvalue-minimisations  :  5280
 total energy-change (2. order) : 0.5054520E-04  (-0.8414786E-04)
 number of electron     792.0002624 magnetization
 augmentation part      211.2445641 magnetization

 Broyden mixing:
  rms(total) = 0.41416E-02    rms(broyden)= 0.41381E-02
  rms(prec ) = 0.47614E-02
  weight for this iteration     100.00

 eigenvalues of (default mixing * dielectric matrix)
  average eigenvalue GAMMA=   1.1842
  2.7429  2.4552  1.8984  0.9519  0.9519  0.7757  0.7757  0.7156  0.5903  0.5903
  0.5784

 Free energy of the ion-electron system (eV)
  ---------------------------------------------------
  alpha Z        PSCENC =      3563.47650690
  Ewald energy   TEWEN  =    -48586.62102756
  -Hartree energ DENC   =    -18741.97722603
  -exchange      EXHF   =         0.00000000
  -V(xc)+E(xc)   XCENC  =      3312.85331008
  PAW double counting   =     89237.76500987   -89539.30663447
  entropy T*S    EENTRO =        -0.00000000
  eigenvalues    EBANDS =     -8869.16333167
  atomic energy  EATOM  =     68656.39924158
  Solvation  Ediel_sol  =         0.00000000
  ---------------------------------------------------
  free energy    TOTEN  =      -966.57415130 eV

  energy without entropy =     -966.57415130  energy(sigma->0) =     -966.57415130


--------------------------------------------------------------------------------------------------------




--------------------------------------- Iteration      1(  17)  ---------------------------------------


    POTLOK:  cpu time      0.2434: real time      0.2460
    SETDIJ:  cpu time      0.0097: real time      0.0115
     EDDAV:  cpu time     24.0357: real time     24.1965
       DOS:  cpu time      0.0006: real time      0.0006
    CHARGE:  cpu time      0.2484: real time      0.2498
    MIXING:  cpu time      0.0168: real time      0.0169
    --------------------------------------------
      LOOP:  cpu time     24.5547: real time     24.7213

 eigenvalue-minimisations  :  5288
 total energy-change (2. order) :-0.2983434E-05  (-0.1152536E-04)
 number of electron     792.0002624 magnetization
 augmentation part      211.2437870 magnetization

 Broyden mixing:
  rms(total) = 0.31841E-02    rms(broyden)= 0.31828E-02
  rms(prec ) = 0.38143E-02
  weight for this iteration     100.00

 eigenvalues of (default mixing * dielectric matrix)
  average eigenvalue GAMMA=   1.1698
  2.8679  2.4740  1.8173  1.0576  1.0576  0.8707  0.8707  0.6647  0.6647  0.6017
  0.5851  0.5054

 Free energy of the ion-electron system (eV)
  ---------------------------------------------------
  alpha Z        PSCENC =      3563.47650690
  Ewald energy   TEWEN  =    -48586.62102756
  -Hartree energ DENC   =    -18742.23821606
  -exchange      EXHF   =         0.00000000
  -V(xc)+E(xc)   XCENC  =      3312.86806375
  PAW double counting   =     89234.97766862   -89536.51415893
  entropy T*S    EENTRO =        -0.00000000
  eigenvalues    EBANDS =     -8868.92223258
  atomic energy  EATOM  =     68656.39924158
  Solvation  Ediel_sol  =         0.00000000
  ---------------------------------------------------
  free energy    TOTEN  =      -966.57415429 eV

  energy without entropy =     -966.57415429  energy(sigma->0) =     -966.57415429


--------------------------------------------------------------------------------------------------------




--------------------------------------- Iteration      1(  18)  ---------------------------------------


    POTLOK:  cpu time      0.2097: real time      0.2132
    SETDIJ:  cpu time      0.0103: real time      0.0111
     EDDAV:  cpu time     21.7890: real time     21.9385
       DOS:  cpu time      0.0008: real time      0.0008
    CHARGE:  cpu time      0.2470: real time      0.2484
    MIXING:  cpu time      0.0213: real time      0.0215
    --------------------------------------------
      LOOP:  cpu time     22.2781: real time     22.4335

 eigenvalue-minimisations  :  5344
 total energy-change (2. order) : 0.3963331E-05  (-0.1906613E-05)
 number of electron     792.0002624 magnetization
 augmentation part      211.2423658 magnetization

 Broyden mixing:
  rms(total) = 0.20566E-02    rms(broyden)= 0.20564E-02
  rms(prec ) = 0.25075E-02
  weight for this iteration     100.00

 eigenvalues of (default mixing * dielectric matrix)
  average eigenvalue GAMMA=   1.1764
  2.9282  2.4509  1.7126  1.4900  1.0663  0.9003  0.9003  0.7727  0.7727  0.6487
  0.5755  0.5755  0.4995

 Free energy of the ion-electron system (eV)
  ---------------------------------------------------
  alpha Z        PSCENC =      3563.47650690
  Ewald energy   TEWEN  =    -48586.62102756
  -Hartree energ DENC   =    -18742.35665507
  -exchange      EXHF   =         0.00000000
  -V(xc)+E(xc)   XCENC  =      3312.87240391
  PAW double counting   =     89233.59176844   -89535.12447127
[...]
      7.58456      3.79228      1.99678     0.01126 -0.00617 -2.89375 ( -0.63483  6.00000)
      7.58456      7.58456      1.99678     0.00198  0.00033 -2.89469 ( -0.63483  6.00000)
      0.00000      1.89614      0.40437     0.00095 -0.00028 -2.88600 ( -0.63485  6.00000)
      0.00000      5.68842      0.40437     0.00076 -0.00011 -2.89120 ( -0.63481  6.00000)
      0.00000      9.48070      0.40437     0.00076  0.00041 -2.89180 ( -0.63483  6.00000)
      3.79228      1.89614      0.40437     0.00125 -0.00032 -2.90176 ( -0.63481  6.00000)
      3.79228      5.68842      0.40437     0.00065 -0.00025 -2.89713 ( -0.63481  6.00000)
      3.79228      9.48070      0.40437     0.00067  0.00056 -2.89721 ( -0.63483  6.00000)
      7.58456      1.89614      0.40437     0.00732 -0.00030 -2.88877 ( -0.63480  6.00000)
      7.58456      5.68842      0.40437    -0.00122 -0.00150 -2.89486 ( -0.63481  6.00000)
      7.58456      9.48070      0.40437    -0.00124  0.00182 -2.89495 ( -0.63484  6.00000)
      1.89614      1.89614      2.80551    -0.00016  0.00002 -2.89356 ( -0.63482  6.00000)
      1.89614      5.68842      2.80551    -0.00012 -0.00014 -2.89486 ( -0.63482  6.00000)
      1.89614      9.48070      2.80551    -0.00018  0.00015 -2.89492 ( -0.63484  6.00000)
      5.68842      1.89614      2.80551     0.00604  0.00003 -2.95022 ( -0.63449  6.00000)
      5.68842      5.68842      2.80551     0.00019 -0.00037 -2.89271 ( -0.63480  6.00000)
      5.68842      9.48070      2.80551     0.00015  0.00036 -2.89328 ( -0.63481  6.00000)
      9.48070      1.89614      2.80551    -0.00511  0.00001 -2.83168 ( -0.63517  6.00000)
      9.48070      5.68842      2.80551    -0.00000  0.00004 -2.89674 ( -0.63484  6.00000)
      9.48070      9.48070      2.80551     0.00005 -0.00004 -2.89679 ( -0.63484  6.00000)
 -----------------------------------------------------------------------------------------
    total drift (improves with k-points):  -0.00045  0.00010 -0.07384




--------------------------------------------------------------------------------------------------------




 MACROSCOPIC STATIC DIELECTRIC TENSOR (including local field effects in DFT)
 ------------------------------------------------------
           6.955949    -0.000004     0.017491
          -0.000007     6.957505    -0.000002
           0.017499    -0.000001     6.371113
 ------------------------------------------------------



--------------------------------------------------------------------------------------------------------




--------------------------------------------------------------------------------------------------------




 MACROSCOPIC STATIC DIELECTRIC TENSOR (including local field effects in DFT)
 ------------------------------------------------------
           6.955949    -0.000004     0.017491
          -0.000007     6.957505    -0.000002
           0.017499    -0.000001     6.371113
 ------------------------------------------------------


 PIEZOELECTRIC TENSOR (including local field effects)  for field in x, y, z        (e  Angst)
          XX          YY          ZZ          XY          YZ          ZX
  --------------------------------------------------------------------------------
  x    -0.09969    -0.59088    -0.91452    -0.00040    -0.00004    -0.04780
  y    -0.00017     0.00013    -0.00025     0.12561     0.05593     0.00010
  z    -0.03287    -0.07383    -0.00257    -0.00009     0.00003     0.17964

 PIEZOELECTRIC TENSOR (including local field effects)  for field in x, y, z        (C/m^2)
          XX          YY          ZZ          XY          YZ          ZX
  --------------------------------------------------------------------------------
  x    -0.00128    -0.00762    -0.01179    -0.00001    -0.00000    -0.00062
  y    -0.00000     0.00000    -0.00000     0.00162     0.00072     0.00000
  z    -0.00042    -0.00095    -0.00003    -0.00000     0.00000     0.00232

 BORN EFFECTIVE CHARGES (including local field effects) (in |e|, cummulative output)
 ---------------------------------------------------------------------------------
 ion    1
    1     6.64144     0.00007    -0.03940
    2     0.00000     6.65998    -0.00028
    3     0.17620    -0.00018     5.78766
 ion    2
    1     6.65735    -0.00058    -0.01014
    2    -0.00651     6.65872     0.00003
    3     0.00816     0.00061     5.78700
 ion    3
    1     6.65757     0.00051    -0.00976
    2     0.00646     6.66003     0.00027
    3     0.00861    -0.00044     5.78766
 ion    4
    1     6.42819     0.00010     0.09580
    2    -0.00001     6.72672     0.00010
    3     0.28082     0.00022     5.84102
 ion    5
    1     6.65884     0.02488    -0.01341
    2     0.00091     6.69191    -0.00874
    3    -0.00237     0.01535     5.79375
 ion    6
    1     6.66177    -0.02486    -0.01335
    2    -0.00089     6.69596     0.00855
    3    -0.00232    -0.01562     5.79380
 ion    7
    1     6.80225    -0.00011     0.10676
    2    -0.00011     6.55995    -0.00022
    3     0.28555    -0.00019     5.71889
 ion    8
    1     6.65817     0.01375    -0.00765
    2     0.00038     6.61228     0.01103
    3    -0.00298    -0.02023     5.78168
 ion    9
    1     6.65839    -0.01367    -0.00803
    2    -0.00026     6.61361    -0.01073
    3    -0.00339     0.02039     5.78238
 ion   10
    1     6.65730    -0.00211     0.01023
    2     0.00394     6.66044     0.00106
    3    -0.00773    -0.00037     5.78829
 ion   11
    1     6.65755     0.00209     0.00981
    2    -0.00395     6.66173    -0.00131
    3    -0.00812     0.00016     5.78897
 ion   12
    1     6.65947     0.00004     0.00695
    2     0.00009     6.66080     0.00032
    3    -0.00217     0.00020     5.78813
 ion   13
    1     6.66709    -0.01600     0.02935
    2    -0.00341     6.61123    -0.06275
    3     0.00476    -0.01701     5.76918
 ion   14
    1     6.67007     0.01605     0.02935
    2     0.00340     6.61530     0.06280
    3     0.00473     0.01722     5.76923
 ion   15
    1     6.65900    -0.00002     0.00699
    2     0.00004     6.66375    -0.00015
    3     0.00072    -0.00023     5.79228
 ion   16
    1     6.64855    -0.01267     0.01630
    2    -0.00304     6.71120     0.07243
    3     0.00277     0.02226     5.79940
 ion   17
    1     6.64878     0.01270     0.01671
    2     0.00312     6.71261    -0.07273
    3     0.00319    -0.02243     5.80011
 ion   18
    1     6.66164    -0.00003     0.00394
    2    -0.00008     6.65575     0.00027
    3     0.00039     0.00015     5.78096
 ion   19
    1     6.65817     0.00304    -0.00719
    2     0.00248     6.66609    -0.00826
    3     0.00080    -0.00629     5.78398
 ion   20
    1     6.66115    -0.00311    -0.00716
    2    -0.00253     6.67014     0.00817
    3     0.00079     0.00605     5.78404
 ion   21
    1     6.66048     0.00001    -0.00241
    2    -0.00000     6.66012     0.00010
    3     0.00023     0.00021     5.78620
 ion   22
    1     6.65880     0.00171    -0.00797
    2     0.00176     6.65072     0.00829
    3     0.00233     0.00558     5.78873
 ion   23
    1     6.65903    -0.00166    -0.00832
    2    -0.00174     6.65203    -0.00804
    3     0.00194    -0.00539     5.78944
 ion   24
    1     6.65992    -0.00011    -0.00343
    2    -0.00009     6.66087    -0.00030
    3     0.00051    -0.00021     5.78869
 ion   25
    1     6.66413     0.03516     0.07078
    2    -0.00445     6.65464     0.00359
    3    -0.00366    -0.00070     5.78351
 ion   26
    1     6.66435    -0.03526     0.07116
    2     0.00438     6.65598    -0.00335
    3    -0.00327     0.00084     5.78423
 ion   27
    1     6.66241     0.00006     0.02359
    2     0.00008     6.66001    -0.00030
    3    -0.00051    -0.00019     5.78775
 ion   28
    1     6.70485    -0.00004     0.07146
    2     0.00001     6.65568    -0.00010
    3     0.02706    -0.00023     5.77153
 ion   29
    1     6.65805    -0.00069     0.00911
    2    -0.00129     6.65043     0.00089
    3     0.00157     0.01162     5.79278
 ion   30
    1     6.66098     0.00057     0.00910
    2     0.00125     6.65453    -0.00077
    3     0.00157    -0.01139     5.79284
 ion   31
    1     6.61033    -0.00008     0.05687
    2    -0.00009     6.66485     0.00028
    3     0.01494     0.00018     5.80202
 ion   32
    1     6.65835     0.00110     0.00837
    2    -0.00097     6.66527    -0.00019
    3     0.00091    -0.00985     5.78333
 ion   33
    1     6.65858    -0.00104     0.00874
    2     0.00110     6.66664    -0.00009
    3     0.00136     0.00970     5.78403
 ion   34
    1     6.69001     0.00005     0.27591
    2     0.00005     6.66976     0.00028
    3    -0.02115     0.00020     5.77411
 ion   35
    1     6.66318    -0.04104    -0.03697
    2     0.00253     6.66117     0.00089
    3    -0.00271     0.00120     5.78950
 ion   36
    1     6.66342     0.04089    -0.03739
    2    -0.00260     6.66254    -0.00118
    3    -0.00314    -0.00137     5.79016
 ion   37
    1    -5.51637     0.00003    -0.07000
    2     0.00003    -1.13414    -0.00005
    3    -0.14364    -0.00007    -2.89711
 ion   38
    1    -5.53511     0.00239    -0.00700
    2     0.00073    -1.11507    -0.00303
    3    -0.00062    -0.00078    -2.89900
 ion   39
    1    -5.53542    -0.00242    -0.00698
    2    -0.00075    -1.11630     0.00308
    3    -0.00062     0.00081    -2.89959
 ion   40
    1    -5.51645     0.00014    -0.05534
    2     0.00008    -1.11059    -0.00001
    3    -0.13837    -0.00001    -2.89171
 ion   41
    1    -5.53426     0.00121    -0.00619
    2    -0.00071    -1.12830     0.00227
    3    -0.00280     0.00093    -2.88940
 ion   42
    1    -5.53440    -0.00135    -0.00620
    2     0.00060    -1.12945    -0.00224
    3    -0.00289    -0.00096    -2.88945
 ion   43
    1    -5.52413     0.00014    -0.32144
    2     0.00001    -1.12138    -0.00000
    3    -0.44905    -0.00001    -2.88246
 ion   44
    1    -5.53786    -0.00321     0.03171
    2    -0.00014    -1.12171    -0.00058
    3     0.00051     0.00029    -2.89495
 ion   45
    1    -5.53798     0.00340     0.03170
    2     0.00015    -1.12286     0.00059
    3     0.00052    -0.00029    -2.89501
 ion   46
    1    -1.12270    -0.00007    -0.00688
    2    -0.00011    -5.53805     0.00008
    3    -0.00663     0.00032    -2.89465
 ion   47
    1    -1.12312    -0.00240    -0.00139
    2     0.00133    -5.53774     0.00000
    3    -0.00058    -0.00039    -2.89388
 ion   48
    1    -1.12312     0.00248    -0.00143
    2    -0.00117    -5.53664    -0.00017
    3    -0.00055     0.00008    -2.89394
 ion   49
    1    -1.11692    -0.00000    -0.03973
    2     0.00002    -5.46017     0.00008
    3    -0.00854     0.00032    -2.91100
 ion   50
    1    -1.11845    -0.00740    -0.00351
    2    -0.00045    -5.54259    -0.00099
    3     0.00031     0.01169    -2.90094
 ion   51
    1    -1.11860     0.00736    -0.00357
    2     0.00043    -5.54164     0.00100
    3     0.00028    -0.01195    -2.90156
 ion   52
    1    -1.12642     0.00008    -0.03386
    2     0.00013    -5.62252    -0.00001
    3    -0.00650     0.00026    -2.86654
 ion   53
    1    -1.12760    -0.00432    -0.00195
    2    -0.00049    -5.53057     0.00247
    3     0.00057    -0.01107    -2.88513
 ion   54
    1    -1.12763     0.00424    -0.00193
    2     0.00036    -5.52947    -0.00259
    3     0.00052     0.01079    -2.88521
 ion   55
    1    -1.12177     0.00820     0.00461
    2    -0.00542    -5.53707    -0.00095
    3    -0.00636     0.00159    -2.89460
 ion   56
    1    -1.12178    -0.00810     0.00459
    2     0.00553    -5.53606     0.00100
    3    -0.00639    -0.00126    -2.89469
 ion   57
    1    -1.12300    -0.00009     0.00066
    2    -0.00015    -5.53623    -0.00011
    3     0.00041    -0.00032    -2.89393
 ion   58
    1    -1.11804     0.07024    -0.01445
    2    -0.01498    -5.58886     0.06450
    3    -0.00349    -0.00318    -2.87068
 ion   59
    1    -1.11819    -0.07027    -0.01446
    2     0.01497    -5.58795    -0.06437
    3    -0.00348     0.00345    -2.87129
 ion   60
    1    -1.11759    -0.00001    -0.00292
    2    -0.00000    -5.54273     0.00001
    3    -0.00059    -0.00027    -2.90011
 ion   61
    1    -1.11948     0.05065    -0.00550
    2    -0.01594    -5.46573    -0.07400
    3    -0.00058    -0.00540    -2.91526
 ion   62
    1    -1.11951    -0.05068    -0.00552
    2     0.01588    -5.46461     0.07408
    3    -0.00058     0.00576    -2.91534
 ion   63
    1    -1.12832     0.00009    -0.00218
    2     0.00010    -5.52613    -0.00008
    3    -0.00067    -0.00030    -2.88705
 ion   64
    1    -5.53500    -0.00079     0.00709
    2    -0.00028    -1.12429    -0.00263
    3     0.00113    -0.00381    -2.89432
 ion   65
    1    -5.53532     0.00082     0.00710
    2     0.00027    -1.12552     0.00262
    3     0.00110     0.00375    -2.89489
 ion   66
    1    -5.53684    -0.00001     0.00246
    2    -0.00002    -1.12143     0.00004
    3     0.00041     0.00003    -2.89502
 ion   67
    1    -5.53410    -0.00026     0.00624
    2     0.00034    -1.12052     0.00219
    3    -0.00041     0.00327    -2.89224
 ion   68
    1    -5.53429     0.00008     0.00624
    2    -0.00044    -1.12165    -0.00220
    3    -0.00038    -0.00328    -2.89231
 ion   69
    1    -5.53572     0.00018     0.00250
    2     0.00006    -1.12510     0.00004
    3     0.00012     0.00001    -2.89268
 ion   70
    1    -5.53710     0.00325    -0.04055
    2    -0.00007    -1.12223    -0.00050
    3    -0.00069    -0.00022    -2.89223
 ion   71
    1    -5.53730    -0.00310    -0.04060
    2     0.00014    -1.12341     0.00053
    3    -0.00071     0.00023    -2.89228
 ion   72
    1    -5.53752    -0.00011    -0.01517
    2    -0.00006    -1.12322    -0.00003
    3    -0.00045    -0.00000    -2.89368
 ion   73
    1    -5.53531    -0.00076    -0.01038
    2     0.00001    -1.12234    -0.00007
    3    -0.00801     0.00012    -2.89362
 ion   74
    1    -5.53544     0.00086    -0.01035
    2     0.00006    -1.12348     0.00007
    3    -0.00797    -0.00010    -2.89369
 ion   75
    1    -5.53595    -0.00014    -0.00552
    2    -0.00007    -1.12343    -0.00006
    3    -0.00288    -0.00000    -2.89371
 ion   76
    1    -5.53895    -0.00144    -0.01031
    2     0.00056    -1.11965     0.00444
    3     0.00462    -0.00099    -2.88885
 ion   77
    1    -5.53928     0.00143    -0.01030
    2    -0.00058    -1.12089    -0.00442
    3     0.00459     0.00105    -2.88944
 ion   78
    1    -5.53854    -0.00002    -0.00311
    2     0.00002    -1.12439    -0.00001
    3     0.00164    -0.00005    -2.89285
 ion   79
    1    -5.53859    -0.00147    -0.00632
    2    -0.00060    -1.12486    -0.00572
    3     0.00425     0.00076    -2.89560
 ion   80
    1    -5.53872     0.00134    -0.00638
    2     0.00056    -1.12602     0.00573
    3     0.00425    -0.00072    -2.89568
 ion   81
    1    -5.53773     0.00009    -0.00177
    2     0.00002    -1.12249    -0.00001
    3     0.00118     0.00000    -2.89368
 ion   82
    1    -1.12505     0.00447    -0.00198
    2    -0.00295    -5.53149     0.01009
    3    -0.00563     0.01275    -2.88969
 ion   83
    1    -1.12517    -0.00444    -0.00196
    2     0.00294    -5.53055    -0.01012
    3    -0.00563    -0.01303    -2.89031
 ion   84
    1    -1.12436     0.00004    -0.00076
    2     0.00000    -5.53395     0.00008
    3    -0.00105     0.00030    -2.89183
 ion   85
    1    -1.12007     0.00755    -0.00087
    2    -0.00309    -5.54354    -0.00964
    3    -0.00510    -0.01017    -2.89614
 ion   86
    1    -1.12007    -0.00765    -0.00092
    2     0.00297    -5.54246     0.00958
    3    -0.00514     0.00984    -2.89622
 ion   87
    1    -1.12137     0.00008    -0.00038
    2     0.00011    -5.53894     0.00009
    3    -0.00112     0.00031    -2.89563
 ion   88
    1    -1.12428    -0.07962    -0.02779
    2     0.00450    -5.54160    -0.00455
    3     0.01122     0.00585    -2.89298
 ion   89
    1    -1.12431     0.07972    -0.02775
    2    -0.00437    -5.54047     0.00453
    3     0.01127    -0.00617    -2.89307
 ion   90
    1    -1.12341    -0.00007    -0.00289
    2    -0.00013    -5.53701     0.00012
    3     0.00198     0.00033    -2.89401
 ion   91
    1    -1.12573     0.00001    -0.00651
    2    -0.00001    -5.55213    -0.00006
    3     0.00095    -0.00028    -2.88531
 ion   92
    1    -1.12406     0.00016     0.00019
    2     0.00046    -5.53704     0.00080
    3     0.00076    -0.00011    -2.89051
 ion   93
    1    -1.12419    -0.00016     0.00020
    2    -0.00045    -5.53613    -0.00075
    3     0.00076     0.00041    -2.89112
 ion   94
    1    -1.12017     0.00008    -0.00356
    2     0.00015    -5.52240    -0.00009
    3     0.00125    -0.00032    -2.90108
 ion   95
    1    -1.12165    -0.00069     0.00063
    2     0.00044    -5.53787    -0.00095
    3     0.00065    -0.00025    -2.89645
 ion   96
    1    -1.12167     0.00062     0.00061
    2    -0.00058    -5.53680     0.00104
    3     0.00068     0.00055    -2.89653
 ion   97
    1    -1.12136    -0.00007    -0.08567
    2    -0.00012    -5.52950    -0.00007
    3     0.00732    -0.00030    -2.88808
 ion   98
    1    -1.12344     0.01468    -0.00528
    2    -0.00095    -5.53710    -0.00025
    3    -0.00122    -0.00150    -2.89417
 ion   99
    1    -1.12347    -0.01462    -0.00526
    2     0.00105    -5.53601     0.00037
    3    -0.00124     0.00182    -2.89427
 ion  100
    1    -5.53058    -0.00018     0.00591
    2    -0.00004    -1.12350     0.00000
    3    -0.00016     0.00002    -2.89288
 ion  101
    1    -5.53510     0.00172     0.00792
    2     0.00003    -1.12230    -0.00008
    3    -0.00012    -0.00014    -2.89418
 ion  102
    1    -5.53525    -0.00159     0.00795
    2     0.00007    -1.12343     0.00006
    3    -0.00018     0.00015    -2.89423
 ion  103
    1    -5.53782     0.00000     0.04809
    2     0.00002    -1.11769     0.00003
    3     0.00604     0.00003    -2.94954
 ion  104
    1    -5.53849     0.00239     0.00619
    2    -0.00022    -1.12527    -0.00067
    3     0.00020    -0.00037    -2.89203
 ion  105
    1    -5.53879    -0.00242     0.00618
    2     0.00023    -1.12648     0.00066
    3     0.00016     0.00036    -2.89260
 ion  106
    1    -5.53770     0.00015     0.02463
    2     0.00007    -1.12998    -0.00002
    3    -0.00510     0.00001    -2.83099
 ion  107
    1    -5.53799     0.00269     0.00335
    2     0.00021    -1.11958    -0.00028
    3     0.00000     0.00003    -2.89606
 ion  108
    1    -5.53815    -0.00283     0.00332
    2    -0.00026    -1.12073     0.00026
    3     0.00006    -0.00004    -2.89611


--------------------------------------------------------------------------------------------------------


     LOOP+:  cpu time   2366.9259: real time   2403.1534
    4ORBIT:  cpu time      0.0000: real time      0.0000

 total amount of memory used by VASP MPI-rank0   266725. kBytes
=======================================================================

   base      :      30000. kBytes
   nonlr-proj:      19556. kBytes
   fftplans  :      10927. kBytes
   grid      :      23181. kBytes
   one-center:       1679. kBytes
   wavefun   :     181382. kBytes



 General timing and accounting informations for this job:
 ========================================================

                  Total CPU time used (sec):     2378.028
                            User time (sec):     2300.192
                          System time (sec):       77.836
                         Elapsed time (sec):     2423.323

                   Maximum memory used (kb):     1088372.
                   Average memory used (kb):          N/A

                          Minor page faults:      2208468
                          Major page faults:           20
                 Voluntary context switches:       107349
