 vasp.6.3.0 20Jan22 (build Mar 29 2022 16:24:06) complex

 executed on             Bridges2 date 2023.01.12  19:12:18
 running on   32 total cores
 distrk:  each k-point on    4 cores,    8 groups
 distr:  one band on NCORE=   1 cores,    4 groups


--------------------------------------------------------------------------------------------------------


 INCAR:
   ICHARG = 2
   LWAVE = .FALSE.
   LCHARG = .FALSE.
   LVTOT = .FALSE.
   NCORE = 1
   KPAR = 8
   EDIFF = 1E-7
   NELM = 80
   PREC = Normal
   LREAL = Auto
   NELMIN = 4
   ENCUT = 400.0 eV
   ISPIN = 1
   ISMEAR = 0
   SIGMA = 0.10
   NSW = 0
   LEPSILON = .TRUE.
   LPEAD = .TRUE.
   ISYM = 0

 POTCAR:    PAW_PBE Ti_pv 07Sep2000
 POTCAR:    PAW_PBE O 08Apr2002
 -----------------------------------------------------------------------------
|                                                                             |
|           W    W    AA    RRRRR   N    N  II  N    N   GGGG   !!!           |
|           W    W   A  A   R    R  NN   N  II  NN   N  G    G  !!!           |
|           W    W  A    A  R    R  N N  N  II  N N  N  G       !!!           |
|           W WW W  AAAAAA  RRRRR   N  N N  II  N  N N  G  GGG   !            |
|           WW  WW  A    A  R   R   N   NN  II  N   NN  G    G                |
|           W    W  A    A  R    R  N    N  II  N    N   GGGG   !!!           |
|                                                                             |
|     For optimal performance we recommend to set                             |
|       NCORE = 2 up to number-of-cores-per-socket                            |
|     NCORE specifies how many cores store one orbital (NPAR=cpu/NCORE).      |
|     This setting can greatly improve the performance of VASP for DFT.       |
|     The default, NCORE=1 might be grossly inefficient on modern             |
|     multi-core architectures or massively parallel machines. Do your        |
|     own testing! More info at https://www.vasp.at/wiki/index.php/NCORE      |
|     Unfortunately you need to use the default for GW and RPA                |
|     calculations (for HF NCORE is supported but not extensively tested      |
|     yet).                                                                   |
|                                                                             |
 -----------------------------------------------------------------------------

 POTCAR:    PAW_PBE Ti_pv 07Sep2000
   VRHFIN =Ti: d3 s1
   LEXCH  = PE
   EATOM  =  1042.5995 eV,   76.6289 Ry

   TITEL  = PAW_PBE Ti_pv 07Sep2000
   LULTRA =        F    use ultrasoft PP ?
   IUNSCR =        1    unscreen: 0-lin 1-nonlin 2-no
   RPACOR =    2.200    partial core radius
   POMASS =   47.880; ZVAL   =   10.000    mass and valenz
   RCORE  =    2.500    outmost cutoff radius
   RWIGS  =    2.500; RWIGS  =    1.323    wigner-seitz radius (au A)
   ENMAX  =  222.335; ENMIN  =  166.751 eV
   RCLOC  =    1.701    cutoff for local pot
   LCOR   =        T    correct aug charges
   LPAW   =        T    paw PP
   EAUG   =  482.848
   DEXC   =    0.000
   RMAX   =    2.564    core radius for proj-oper
   RAUG   =    1.300    factor for augmentation sphere
   RDEP   =    2.538    radius for radial grids
   RDEPT  =    1.952    core radius for aug-charge

   Atomic configuration
    8 entries
     n  l   j            E        occ.
     1  0  0.50     -4865.3608   2.0000
     2  0  0.50      -533.1368   2.0000
     2  1  1.50      -440.5031   6.0000
     3  0  0.50       -59.3186   2.0000
     3  1  1.50       -35.7012   6.0000
     3  2  2.50        -1.9157   3.0000
     4  0  0.50        -3.7291   1.0000
     4  3  2.50        -1.3606   0.0000
   Description
     l       E           TYP  RCUT    TYP  RCUT
     1    -35.7012140     23  2.300
     1     -1.3605826     23  2.300
     2     -1.9156996     23  2.500
     2     -0.4063033     23  2.500
     0     -3.7290856     23  2.500
     0     20.4087390     23  2.500
  local pseudopotential read in
  partial core-charges read in
  partial kinetic energy density read in
  atomic valenz-charges read in
  non local Contribution for L=           1  read in
    real space projection operators read in
  non local Contribution for L=           1  read in
    real space projection operators read in
  non local Contribution for L=           2  read in
    real space projection operators read in
  non local Contribution for L=           2  read in
    real space projection operators read in
  non local Contribution for L=           0  read in
    real space projection operators read in
  non local Contribution for L=           0  read in
    real space projection operators read in
    PAW grid and wavefunctions read in

   number of l-projection  operators is LMAX  =           6
   number of lm-projection operators is LMMAX =          18

 POTCAR:    PAW_PBE O 08Apr2002
   VRHFIN =O: s2p4
   LEXCH  = PE
   EATOM  =   432.3788 eV,   31.7789 Ry

   TITEL  = PAW_PBE O 08Apr2002
   LULTRA =        F    use ultrasoft PP ?
   IUNSCR =        1    unscreen: 0-lin 1-nonlin 2-no
   RPACOR =    1.200    partial core radius
   POMASS =   16.000; ZVAL   =    6.000    mass and valenz
   RCORE  =    1.520    outmost cutoff radius
   RWIGS  =    1.550; RWIGS  =    0.820    wigner-seitz radius (au A)
   ENMAX  =  400.000; ENMIN  =  300.000 eV
   ICORE  =        2    local potential
   LCOR   =        T    correct aug charges
   LPAW   =        T    paw PP
   EAUG   =  605.392
   DEXC   =    0.000
   RMAX   =    1.553    core radius for proj-oper
   RAUG   =    1.300    factor for augmentation sphere
   RDEP   =    1.550    radius for radial grids
   RDEPT  =    1.329    core radius for aug-charge

   Atomic configuration
    4 entries
     n  l   j            E        occ.
     1  0  0.50      -514.6923   2.0000
     2  0  0.50       -23.9615   2.0000
     2  1  0.50        -9.0305   4.0000
     3  2  1.50        -9.5241   0.0000
   Description
     l       E           TYP  RCUT    TYP  RCUT
     0    -23.9615318     23  1.200
     0     -9.5240782     23  1.200
     1     -9.0304911     23  1.520
     1      8.1634956     23  1.520
     2     -9.5240782      7  1.500
  local pseudopotential read in
  partial core-charges read in
  partial kinetic energy density read in
  kinetic energy density of atom read in
  atomic valenz-charges read in
  non local Contribution for L=           0  read in
    real space projection operators read in
  non local Contribution for L=           0  read in
    real space projection operators read in
  non local Contribution for L=           1  read in
    real space projection operators read in
  non local Contribution for L=           1  read in
    real space projection operators read in
    PAW grid and wavefunctions read in

   number of l-projection  operators is LMAX  =           4
   number of lm-projection operators is LMMAX =           8

 Optimization of the real space projectors (new method)

 maximal supplied QI-value         = 15.12
 optimisation between [QCUT,QGAM] = [ 10.13, 20.41] = [ 28.73,116.64] Ry
 Optimized for a Real-space Cutoff    1.51 Angstroem

   l    n(q)    QCUT    max X(q) W(low)/X(q) W(high)/X(q)  e(spline)
   1      9    10.129     4.216    0.12E-04    0.72E-04    0.60E-07
   1      9    10.129     5.422    0.84E-04    0.21E-03    0.15E-06
   2      8    10.129    72.084    0.33E-03    0.35E-04    0.17E-06
   2      8    10.129    65.965    0.33E-03    0.37E-04    0.17E-06
   0      9    10.129    41.531    0.17E-03    0.19E-03    0.81E-07
   0      9    10.129    16.290    0.12E-03    0.14E-03    0.64E-07
 Optimization of the real space projectors (new method)

 maximal supplied QI-value         = 24.76
 optimisation between [QCUT,QGAM] = [ 10.15, 20.30] = [ 28.85,115.39] Ry
 Optimized for a Real-space Cutoff    1.38 Angstroem

   l    n(q)    QCUT    max X(q) W(low)/X(q) W(high)/X(q)  e(spline)
   0      8    10.150    20.381    0.22E-03    0.32E-03    0.29E-06
   0      8    10.150    15.268    0.23E-03    0.35E-03    0.30E-06
   1      8    10.150     5.964    0.46E-03    0.53E-03    0.21E-06
   1      8    10.150     5.382    0.38E-03    0.45E-03    0.19E-06
  PAW_PBE Ti_pv 07Sep2000               :
 energy of atom  1       EATOM=-1042.5995
 kinetic energy error for atom=    0.0037 (will be added to EATOM!!)
  PAW_PBE O 08Apr2002                   :
 energy of atom  2       EATOM= -432.3788
 kinetic energy error for atom=    0.1156 (will be added to EATOM!!)


 POSCAR: Ti4 O8
  positions in cartesian coordinates
  No initial velocities read in
 exchange correlation table for  LEXCH =        8
   RHO(1)=    0.500       N(1)  =     2000
   RHO(2)=  100.500       N(2)  =     4000



--------------------------------------------------------------------------------------------------------


 ion  position               nearest neighbor table
   1  0.167  0.167  0.500-  56 1.94  55 1.94  40 1.94  37 1.94 100 2.00  46 2.00  31 3.06  28 3.06
                            11 3.06  10 3.06
   2  0.167  0.500  0.500-  56 1.94  41 1.94  38 1.94  57 1.94 101 2.00  47 2.00  11 3.06  32 3.06
                            29 3.06  12 3.06
   3  0.167  0.833  0.500-  57 1.94  42 1.94  39 1.94  55 1.94 102 2.00  48 2.00  12 3.06  33 3.06
                            30 3.06  10 3.06
   4  0.500  0.167  0.500-  43 1.74  40 1.94  59 1.94  58 1.94 103 2.00  49 2.00  31 3.06  14 3.06
                            13 3.06  34 3.06
   5  0.500  0.500  0.500-  59 1.94  41 1.94  60 1.94  44 1.94 104 2.00  50 2.00  32 3.06  14 3.06
                            35 3.06  15 3.06
   6  0.500  0.833  0.500-  60 1.94  42 1.94  58 1.94  45 1.94 105 2.00  51 2.00  15 3.06  33 3.06
                            13 3.06  36 3.06
   7  0.833  0.167  0.500-  62 1.94  61 1.94  37 1.94 106 2.00  52 2.00  43 2.13  34 3.06  17 3.06
                            16 3.06  28 3.06
   8  0.833  0.500  0.500-  44 1.94  62 1.94  63 1.94  38 1.94 107 2.00  53 2.00  35 3.06  17 3.06
                            29 3.06  18 3.06
   9  0.833  0.833  0.500-  63 1.94  45 1.94  61 1.94  39 1.94 108 2.00  54 2.00  36 3.06  18 3.06
                            30 3.06  16 3.06
  10  0.167  0.000  0.750-  67 1.94  64 1.94  46 1.94  48 1.94  73 2.00  55 2.00  22 3.06  19 3.06
                             1 3.06   3 3.06
  11  0.167  0.333  0.750-  47 1.94  46 1.94  68 1.94  65 1.94  74 2.00  56 2.00   2 3.06  23 3.06
                            20 3.06   1 3.06
  12  0.167  0.667  0.750-  48 1.94  69 1.94  66 1.94  47 1.94  75 2.00  57 2.00   3 3.06  24 3.06
                            21 3.06   2 3.06
  13  0.500  0.000  0.750-  67 1.94  49 1.94  51 1.94  70 1.94  76 2.00  58 2.00  22 3.06   4 3.06
                            25 3.06   6 3.06
  14  0.500  0.333  0.750-  50 1.94  68 1.94  49 1.94  71 1.94  77 2.00  59 2.00  23 3.06   5 3.06
                             4 3.06  26 3.06
  15  0.500  0.667  0.750-  51 1.94  69 1.94  50 1.94  72 1.94  78 2.00  60 2.00   6 3.06  24 3.06
                            27 3.06   5 3.06
  16  0.833  0.000  0.750-  70 1.94  52 1.94  64 1.94  54 1.94  79 2.00  61 2.00  25 3.06   7 3.06
                            19 3.06   9 3.06
  17  0.833  0.333  0.750-  71 1.94  53 1.94  52 1.94  65 1.94  80 2.00  62 2.00  26 3.06   8 3.06
                             7 3.06  20 3.06
  18  0.833  0.667  0.750-  54 1.94  72 1.94  66 1.94  53 1.94  81 2.00  63 2.00  27 3.06   9 3.06
                            21 3.06   8 3.06
  19  0.000  0.000  0.000-  73 1.94  91 1.94  79 1.94  93 1.94  82 2.00  64 2.00  10 3.06  28 3.06
                            16 3.06  30 3.06
  20  0.000  0.333  0.000-  92 1.94  74 1.94  91 1.94  80 1.94  83 2.00  65 2.00  29 3.06  11 3.06
                            28 3.06  17 3.06
  21  0.000  0.667  0.000-  93 1.94  75 1.94  81 1.94  92 1.94  84 2.00  66 2.00  30 3.06  12 3.06
                            18 3.06  29 3.06
  22  0.333  0.000  0.000-  76 1.94  73 1.94  94 1.94  96 1.94  85 2.00  67 2.00  13 3.06  10 3.06
                            31 3.06  33 3.06
  23  0.333  0.333  0.000-  77 1.94  95 1.94  74 1.94  94 1.94  86 2.00  68 2.00  14 3.06  32 3.06
                            11 3.06  31 3.06
  24  0.333  0.667  0.000-  96 1.94  78 1.94  75 1.94  95 1.94  87 2.00  69 2.00  33 3.06  15 3.06
                            12 3.06  32 3.06
  25  0.667  0.000  0.000-  79 1.94  97 1.94  76 1.94  99 1.94  88 2.00  70 2.00  16 3.06  34 3.06
                            13 3.06  36 3.06
  26  0.667  0.333  0.000-  80 1.94  98 1.94  97 1.94  77 1.94  89 2.00  71 2.00  17 3.06  35 3.06
                            34 3.06  14 3.06
  27  0.667  0.667  0.000-  81 1.94  99 1.94  78 1.94  98 1.94  90 2.00  72 2.00  18 3.06  36 3.06
                            15 3.06  35 3.06
  28  0.000  0.167  0.250-  83 1.94  82 1.94 100 1.94 106 1.94  37 2.00  91 2.00   1 3.06  20 3.06
                            19 3.06   7 3.06
  29  0.000  0.500  0.250-  83 1.94 101 1.94  84 1.94 107 1.94  38 2.00  92 2.00  20 3.06   2 3.06
                             8 3.06  21 3.06
  30  0.000  0.833  0.250-  84 1.94 102 1.94  82 1.94 108 1.94  39 2.00  93 2.00  21 3.06   3 3.06
                             9 3.06  19 3.06
  31  0.333  0.167  0.250- 103 1.94  86 1.94  85 1.94 100 1.94  40 2.00  94 2.00   4 3.06   1 3.06
                            23 3.06  22 3.06
  32  0.333  0.500  0.250-  86 1.94 104 1.94 101 1.94  87 1.94  41 2.00  95 2.00   5 3.06  23 3.06
                             2 3.06  24 3.06
  33  0.333  0.833  0.250-  87 1.94 105 1.94 102 1.94  85 1.94  42 2.00  96 2.00  24 3.06   6 3.06
                             3 3.06  22 3.06
  34  0.667  0.167  0.250- 106 1.94  89 1.94  88 1.94 103 1.94  97 2.00  43 2.01   7 3.06  26 3.06
                            25 3.06   4 3.06
  35  0.667  0.500  0.250- 107 1.94  89 1.94  90 1.94 104 1.94  44 2.00  98 2.00   8 3.06  26 3.06
                             5 3.06  27 3.06
  36  0.667  0.833  0.250-  90 1.94 108 1.94  88 1.94 105 1.94  45 2.00  99 2.00   9 3.06  27 3.06
                            25 3.06   6 3.06
  37  0.000  0.167  0.458-   1 1.94   7 1.94  28 2.00
  38  0.000  0.500  0.458-   2 1.94   8 1.94  29 2.00
  39  0.000  0.833  0.458-   3 1.94   9 1.94  30 2.00
  40  0.333  0.167  0.458-   4 1.94   1 1.94  31 2.00
  41  0.333  0.500  0.458-   5 1.94   2 1.94  32 2.00
  42  0.333  0.833  0.458-   6 1.94   3 1.94  33 2.00
  43  0.649  0.167  0.458-   4 1.74  34 2.01   7 2.13
  44  0.667  0.500  0.458-   8 1.94   5 1.94  35 2.00
  45  0.667  0.833  0.458-   9 1.94   6 1.94  36 2.00
  46  0.167  0.167  0.708-  11 1.94  10 1.94   1 2.00
  47  0.167  0.500  0.708-  11 1.94  12 1.94   2 2.00
  48  0.167  0.833  0.708-  12 1.94  10 1.94   3 2.00
  49  0.500  0.167  0.708-  14 1.94  13 1.94   4 2.00
  50  0.500  0.500  0.708-  14 1.94  15 1.94   5 2.00
  51  0.500  0.833  0.708-  15 1.94  13 1.94   6 2.00
  52  0.833  0.167  0.708-  17 1.94  16 1.94   7 2.00
  53  0.833  0.500  0.708-  17 1.94  18 1.94   8 2.00
  54  0.833  0.833  0.708-  18 1.94  16 1.94   9 2.00
  55  0.167  0.000  0.542-   1 1.94   3 1.94  10 2.00
  56  0.167  0.333  0.542-   2 1.94   1 1.94  11 2.00
  57  0.167  0.667  0.542-   3 1.94   2 1.94  12 2.00
  58  0.500  0.000  0.542-   4 1.94   6 1.94  13 2.00
  59  0.500  0.333  0.542-   5 1.94   4 1.94  14 2.00
  60  0.500  0.667  0.542-   6 1.94   5 1.94  15 2.00
  61  0.833  0.000  0.542-   7 1.94   9 1.94  16 2.00
  62  0.833  0.333  0.542-   8 1.94   7 1.94  17 2.00
  63  0.833  0.667  0.542-   9 1.94   8 1.94  18 2.00
  64  0.000  0.000  0.792-  10 1.94  16 1.94  19 2.00
  65  0.000  0.333  0.792-  11 1.94  17 1.94  20 2.00
  66  0.000  0.667  0.792-  12 1.94  18 1.94  21 2.00
  67  0.333  0.000  0.792-  13 1.94  10 1.94  22 2.00
  68  0.333  0.333  0.792-  14 1.94  11 1.94  23 2.00
  69  0.333  0.667  0.792-  15 1.94  12 1.94  24 2.00
  70  0.667  0.000  0.792-  16 1.94  13 1.94  25 2.00
  71  0.667  0.333  0.792-  17 1.94  14 1.94  26 2.00
  72  0.667  0.667  0.792-  18 1.94  15 1.94  27 2.00
  73  0.167  0.000  0.958-  22 1.94  19 1.94  10 2.00
  74  0.167  0.333  0.958-  23 1.94  20 1.94  11 2.00
  75  0.167  0.667  0.958-  24 1.94  21 1.94  12 2.00
  76  0.500  0.000  0.958-  22 1.94  25 1.94  13 2.00
  77  0.500  0.333  0.958-  23 1.94  26 1.94  14 2.00
  78  0.500  0.667  0.958-  24 1.94  27 1.94  15 2.00
  79  0.833  0.000  0.958-  25 1.94  19 1.94  16 2.00
  80  0.833  0.333  0.958-  26 1.94  20 1.94  17 2.00
  81  0.833  0.667  0.958-  27 1.94  21 1.94  18 2.00
  82  0.000  0.000  0.208-  28 1.94  30 1.94  19 2.00
  83  0.000  0.333  0.208-  29 1.94  28 1.94  20 2.00
  84  0.000  0.667  0.208-  30 1.94  29 1.94  21 2.00
  85  0.333  0.000  0.208-  31 1.94  33 1.94  22 2.00
  86  0.333  0.333  0.208-  32 1.94  31 1.94  23 2.00
  87  0.333  0.667  0.208-  33 1.94  32 1.94  24 2.00
  88  0.667  0.000  0.208-  34 1.94  36 1.94  25 2.00
  89  0.667  0.333  0.208-  35 1.94  34 1.94  26 2.00
  90  0.667  0.667  0.208-  36 1.94  35 1.94  27 2.00
  91  0.000  0.167  0.042-  20 1.94  19 1.94  28 2.00
  92  0.000  0.500  0.042-  20 1.94  21 1.94  29 2.00
  93  0.000  0.833  0.042-  21 1.94  19 1.94  30 2.00
  94  0.333  0.167  0.042-  23 1.94  22 1.94  31 2.00
  95  0.333  0.500  0.042-  23 1.94  24 1.94  32 2.00
  96  0.333  0.833  0.042-  24 1.94  22 1.94  33 2.00
  97  0.667  0.167  0.042-  26 1.94  25 1.94  34 2.00
  98  0.667  0.500  0.042-  26 1.94  27 1.94  35 2.00
  99  0.667  0.833  0.042-  27 1.94  25 1.94  36 2.00
 100  0.167  0.167  0.292-  31 1.94  28 1.94   1 2.00
 101  0.167  0.500  0.292-  32 1.94  29 1.94   2 2.00
 102  0.167  0.833  0.292-  33 1.94  30 1.94   3 2.00
 103  0.500  0.167  0.292-  31 1.94  34 1.94   4 2.00
 104  0.500  0.500  0.292-  32 1.94  35 1.94   5 2.00
 105  0.500  0.833  0.292-  33 1.94  36 1.94   6 2.00
 106  0.833  0.167  0.292-  34 1.94  28 1.94   7 2.00
 107  0.833  0.500  0.292-  35 1.94  29 1.94   8 2.00
 108  0.833  0.833  0.292-  36 1.94  30 1.94   9 2.00


IMPORTANT INFORMATION: All symmetrisations will be switched off!
NOSYMM: (Re-)initialisation of all symmetry stuff for point group C_1.


----------------------------------------------------------------------------------------

                                     Primitive cell

  volume of cell :    1243.1447

  direct lattice vectors                    reciprocal lattice vectors
    11.376843452  0.000000000  0.000000000     0.087897843  0.000000000  0.000000000
     0.000000000 11.376843452  0.000000000     0.000000000  0.087897843  0.000000000
     0.000000000  0.000000000  9.604574204     0.000000000  0.000000000  0.104117057

  length of vectors
    11.376843452 11.376843452  9.604574204     0.087897843  0.087897843  0.104117057

  position of ions in fractional coordinates (direct lattice)
     0.166666672  0.166666672  0.500000000
     0.166666672  0.500000000  0.500000000
     0.166666672  0.833333313  0.500000000
     0.500000000  0.166666672  0.500000000
     0.500000000  0.500000000  0.500000000
     0.500000000  0.833333313  0.500000000
     0.833333313  0.166666672  0.500000000
     0.833333313  0.500000000  0.500000000
     0.833333313  0.833333313  0.500000000
     0.166666672  0.000000000  0.750000000
     0.166666672  0.333333343  0.750000000
     0.166666672  0.666666687  0.750000000
     0.500000000  0.000000000  0.750000000
     0.500000000  0.333333343  0.750000000
     0.500000000  0.666666687  0.750000000
     0.833333313  0.000000000  0.750000000
     0.833333313  0.333333343  0.750000000
     0.833333313  0.666666687  0.750000000
     0.000000000  0.000000000  0.000000000
     0.000000000  0.333333343  0.000000000
     0.000000000  0.666666687  0.000000000
     0.333333343  0.000000000  0.000000000
     0.333333343  0.333333343  0.000000000
     0.333333343  0.666666687  0.000000000
     0.666666687  0.000000000  0.000000000
     0.666666687  0.333333343  0.000000000
     0.666666687  0.666666687  0.000000000
     0.000000000  0.166666672  0.250000000
     0.000000000  0.500000000  0.250000000
     0.000000000  0.833333313  0.250000000
     0.333333343  0.166666672  0.250000000
     0.333333343  0.500000000  0.250000000
     0.333333343  0.833333313  0.250000000
     0.666666687  0.166666672  0.250000000
     0.666666687  0.500000000  0.250000000
     0.666666687  0.833333313  0.250000000
     0.000000000  0.166666672  0.457898587
     0.000000000  0.500000000  0.457898587
     0.000000000  0.833333313  0.457898587
     0.333333343  0.166666672  0.457898587
     0.333333343  0.500000000  0.457898587
     0.333333343  0.833333313  0.457898587
     0.649087118  0.166666672  0.457898587
     0.666666687  0.500000000  0.457898587
     0.666666687  0.833333313  0.457898587
     0.166666672  0.166666672  0.707898617
     0.166666672  0.500000000  0.707898617
     0.166666672  0.833333313  0.707898617
     0.500000000  0.166666672  0.707898617
     0.500000000  0.500000000  0.707898617
     0.500000000  0.833333313  0.707898617
     0.833333313  0.166666672  0.707898617
     0.833333313  0.500000000  0.707898617
     0.833333313  0.833333313  0.707898617
     0.166666672  0.000000000  0.542101383
     0.166666672  0.333333343  0.542101383
     0.166666672  0.666666687  0.542101383
     0.500000000  0.000000000  0.542101383
     0.500000000  0.333333343  0.542101383
     0.500000000  0.666666687  0.542101383
     0.833333313  0.000000000  0.542101383
     0.833333313  0.333333343  0.542101383
     0.833333313  0.666666687  0.542101383
     0.000000000  0.000000000  0.792101383
     0.000000000  0.333333343  0.792101383
     0.000000000  0.666666687  0.792101383
     0.333333343  0.000000000  0.792101383
     0.333333343  0.333333343  0.792101383
     0.333333343  0.666666687  0.792101383
     0.666666687  0.000000000  0.792101383
     0.666666687  0.333333343  0.792101383
     0.666666687  0.666666687  0.792101383
     0.166666672  0.000000000  0.957898617
     0.166666672  0.333333343  0.957898617
     0.166666672  0.666666687  0.957898617
     0.500000000  0.000000000  0.957898617
     0.500000000  0.333333343  0.957898617
     0.500000000  0.666666687  0.957898617
     0.833333313  0.000000000  0.957898617
     0.833333313  0.333333343  0.957898617
     0.833333313  0.666666687  0.957898617
     0.000000000  0.000000000  0.207898602
     0.000000000  0.333333343  0.207898602
     0.000000000  0.666666687  0.207898602
     0.333333343  0.000000000  0.207898602
     0.333333343  0.333333343  0.207898602
     0.333333343  0.666666687  0.207898602
     0.666666687  0.000000000  0.207898602
     0.666666687  0.333333343  0.207898602
     0.666666687  0.666666687  0.207898602
     0.000000000  0.166666672  0.042101406
     0.000000000  0.500000000  0.042101406
     0.000000000  0.833333313  0.042101406
     0.333333343  0.166666672  0.042101406
     0.333333343  0.500000000  0.042101406
     0.333333343  0.833333313  0.042101406
     0.666666687  0.166666672  0.042101406
     0.666666687  0.500000000  0.042101406
     0.666666687  0.833333313  0.042101406
     0.166666672  0.166666672  0.292101413
     0.166666672  0.500000000  0.292101413
     0.166666672  0.833333313  0.292101413
     0.500000000  0.166666672  0.292101413
     0.500000000  0.500000000  0.292101413
     0.500000000  0.833333313  0.292101413
     0.833333313  0.166666672  0.292101413
     0.833333313  0.500000000  0.292101413
     0.833333313  0.833333313  0.292101413

  ion indices of the primitive-cell ions
   primitive index   ion index
                 1           1
                 2           2
                 3           3
                 4           4
                 5           5
                 6           6
                 7           7
                 8           8
                 9           9
                10          10
                11          11
                12          12
                13          13
                14          14
                15          15
                16          16
                17          17
                18          18
                19          19
                20          20
                21          21
                22          22
                23          23
                24          24
                25          25
                26          26
                27          27
                28          28
                29          29
                30          30
                31          31
                32          32
                33          33
                34          34
                35          35
                36          36
                37          37
                38          38
                39          39
                40          40
                41          41
                42          42
                43          43
                44          44
                45          45
                46          46
                47          47
                48          48
                49          49
                50          50
                51          51
                52          52
                53          53
                54          54
                55          55
                56          56
                57          57
                58          58
                59          59
                60          60
                61          61
                62          62
                63          63
                64          64
                65          65
                66          66
                67          67
                68          68
                69          69
                70          70
                71          71
                72          72
                73          73
                74          74
                75          75
                76          76
                77          77
                78          78
                79          79
                80          80
                81          81
                82          82
                83          83
                84          84
                85          85
                86          86
                87          87
                88          88
                89          89
                90          90
                91          91
                92          92
                93          93
                94          94
                95          95
                96          96
                97          97
                98          98
                99          99
               100         100
               101         101
               102         102
               103         103
               104         104
               105         105
               106         106
               107         107
               108         108

----------------------------------------------------------------------------------------



 KPOINTS: K-Points

Automatic generation of k-mesh.
 Grid dimensions read from file:
 generate k-points for:    2    2    2

 Generating k-lattice:

  Cartesian coordinates                     Fractional coordinates (reciprocal lattice)
     0.043948922  0.000000000  0.000000000     0.500000000  0.000000000  0.000000000
     0.000000000  0.043948922  0.000000000     0.000000000  0.500000000  0.000000000
     0.000000000  0.000000000  0.052058529     0.000000000  0.000000000  0.500000000

  Length of vectors
     0.043948922  0.043948922  0.052058529

  Shift w.r.t. Gamma in fractional coordinates (k-lattice)
     0.500000000  0.500000000  0.500000000


 Subroutine IBZKPT returns following result:
 ===========================================

 Found      4 irreducible k-points:

 Following reciprocal coordinates:
            Coordinates               Weight
  0.250000  0.250000  0.250000      2.000000
 -0.250000  0.250000  0.250000      2.000000
 -0.250000 -0.250000  0.250000      2.000000
  0.250000 -0.250000  0.250000      2.000000

 Following cartesian coordinates:
            Coordinates               Weight
  0.021974  0.021974  0.026029      2.000000
 -0.021974  0.021974  0.026029      2.000000
 -0.021974 -0.021974  0.026029      2.000000
  0.021974 -0.021974  0.026029      2.000000


 Subroutine IBZKPT_HF returns following result:
 ==============================================

 Found      8 k-points in 1st BZ
 the following      8 k-points will be used (e.g. in the exchange kernel)
 Following reciprocal coordinates:   # in IRBZ
  0.250000  0.250000  0.250000    0.12500000   1 t-inv F
 -0.250000  0.250000  0.250000    0.12500000   2 t-inv F
 -0.250000 -0.250000  0.250000    0.12500000   3 t-inv F
  0.250000 -0.250000  0.250000    0.12500000   4 t-inv F
 -0.250000 -0.250000 -0.250000    0.12500000   1 t-inv T
  0.250000 -0.250000 -0.250000    0.12500000   2 t-inv T
  0.250000  0.250000 -0.250000    0.12500000   3 t-inv T
 -0.250000  0.250000 -0.250000    0.12500000   4 t-inv T


--------------------------------------------------------------------------------------------------------




 Dimension of arrays:
   k-points           NKPTS =      4   k-points in BZ     NKDIM =      4   number of bands    NBANDS=    476
   number of dos      NEDOS =    301   number of ions     NIONS =    108
   non local maximal  LDIM  =      6   non local SUM 2l+1 LMDIM =     18
   total plane-waves  NPLWV = 150528
   max r-space proj   IRMAX =   1791   max aug-charges    IRDMAX=   4900
   dimension x,y,z NGX =    56 NGY =   56 NGZ =   48
   dimension x,y,z NGXF=   112 NGYF=  112 NGZF=   96
   support grid    NGXF=   112 NGYF=  112 NGZF=   96
   ions per type =              36  72
   NGX,Y,Z   is equivalent  to a cutoff of   8.18,  8.18,  8.31 a.u.
   NGXF,Y,Z  is equivalent  to a cutoff of  16.37, 16.37, 16.62 a.u.

 SYSTEM =  unknown system
 POSCAR =  Ti4 O8

 Startparameter for this run:
   NWRITE =      2    write-flag & timer
   PREC   = normal    normal or accurate (medium, high low for compatibility)
   ISTART =      0    job   : 0-new  1-cont  2-samecut
   ICHARG =      2    charge: 1-file 2-atom 10-const
   ISPIN  =      1    spin polarized calculation?
   LNONCOLLINEAR =      F non collinear calculations
   LSORBIT =      F    spin-orbit coupling
   INIWAV =      1    electr: 0-lowe 1-rand  2-diag
   LASPH  =      F    aspherical Exc in radial PAW
 Electronic Relaxation 1
   ENCUT  =  400.0 eV  29.40 Ry    5.42 a.u.  18.55 18.55 15.66*2*pi/ulx,y,z
   ENINI  =  400.0     initial cutoff
   ENAUG  =  605.4 eV  augmentation charge cutoff
   NELM   =     80;   NELMIN=  4; NELMDL= -5     # of ELM steps
   EDIFF  = 0.1E-06   stopping-criterion for ELM
   LREAL  =      T    real-space projection
   NLSPLINE    = F    spline interpolate recip. space projectors
   LCOMPAT=      F    compatible to vasp.4.4
   GGA_COMPAT  = T    GGA compatible to vasp.4.4-vasp.4.6
   LMAXPAW     = -100 max onsite density
   LMAXMIX     =    2 max onsite mixed and CHGCAR
   VOSKOWN=      0    Vosko Wilk Nusair interpolation
   ROPT   =   -0.00050  -0.00050
 Ionic relaxation
   EDIFFG = 0.1E-05   stopping-criterion for IOM
   NSW    =      0    number of steps for IOM
   NBLOCK =      1;   KBLOCK =      1    inner block; outer block
   IBRION =     -1    ionic relax: 0-MD 1-quasi-New 2-CG
   NFREE  =      0    steps in history (QN), initial steepest desc. (CG)
   ISIF   =      2    stress and relaxation
   IWAVPR =     10    prediction:  0-non 1-charg 2-wave 3-comb
   ISYM   =      0    0-nonsym 1-usesym 2-fastsym
   LCORR  =      T    Harris-Foulkes like correction to forces

   POTIM  = 0.5000    time-step for ionic-motion
   TEIN   =    0.0    initial temperature
   TEBEG  =    0.0;   TEEND  =   0.0 temperature during run
   SMASS  =  -3.00    Nose mass-parameter (am)
   estimated Nose-frequenzy (Omega)   =  0.10E-29 period in steps = 0.13E+47 mass=  -0.296E-26a.u.
   SCALEE = 1.0000    scale energy and forces
   NPACO  =    256;   APACO  = 10.0  distance and # of slots for P.C.
   PSTRESS=    0.0 pullay stress

  Mass of Ions in am
   POMASS =  47.88 16.00
  Ionic Valenz
   ZVAL   =  10.00  6.00
  Atomic Wigner-Seitz radii
   RWIGS  =  -1.00 -1.00
  virtual crystal weights
   VCA    =   1.00  1.00
   NELECT =     792.0000    total number of electrons
   NUPDOWN=      -1.0000    fix difference up-down

 DOS related values:
   EMIN   =  10.00;   EMAX   =-10.00  energy-range for DOS
   EFERMI =   0.00
   ISMEAR =     0;   SIGMA  =   0.10  broadening in eV -4-tet -1-fermi 0-gaus

 Electronic relaxation 2 (details)
   IALGO  =     38    algorithm
   LDIAG  =      T    sub-space diagonalisation (order eigenvalues)
   LSUBROT=      F    optimize rotation matrix (better conditioning)
   TURBO    =      0    0=normal 1=particle mesh
   IRESTART =      0    0=no restart 2=restart with 2 vectors
   NREBOOT  =      0    no. of reboots
   NMIN     =      0    reboot dimension
   EREF     =   0.00    reference energy to select bands
   IMIX   =      4    mixing-type and parameters
     AMIX     =   0.40;   BMIX     =  1.00
     AMIX_MAG =   1.60;   BMIX_MAG =  1.00
     AMIN     =   0.10
     WC   =   100.;   INIMIX=   1;  MIXPRE=   1;  MAXMIX= -45

 Intra band minimization:
   WEIMIN = 0.0000     energy-eigenvalue tresh-hold
   EBREAK =  0.53E-10  absolut break condition
   DEPER  =   0.30     relativ break condition

   TIME   =   0.40     timestep for ELM

  volume/ion in A,a.u.               =      11.51        77.68
  Fermi-wavevector in a.u.,A,eV,Ry     =   1.408670  2.662001 26.998745  1.984352
  Thomas-Fermi vector in A             =   2.530804

 Write flags
   LWAVE        =      F    write WAVECAR
   LDOWNSAMPLE  =      F    k-point downsampling of WAVECAR
   LCHARG       =      F    write CHGCAR
   LVTOT        =      F    write LOCPOT, total local potential
   LVHAR        =      F    write LOCPOT, Hartree potential only
   LELF         =      F    write electronic localiz. function (ELF)
   LORBIT       =      0    0 simple, 1 ext, 2 COOP (PROOUT), +10 PAW based schemes


 Dipole corrections
   LMONO  =      F    monopole corrections only (constant potential shift)
   LDIPOL =      F    correct potential (dipole corrections)
   IDIPOL =      0    1-x, 2-y, 3-z, 4-all directions
   EPSILON=  1.0000000 bulk dielectric constant

 Exchange correlation treatment:
   GGA     =    --    GGA type
   LEXCH   =     8    internal setting for exchange type
   LIBXC   =     F    Libxc
   VOSKOWN =     0    Vosko Wilk Nusair interpolation
   LHFCALC =     F    Hartree Fock is set to
   LHFONE  =     F    Hartree Fock one center treatment
   AEXX    =    0.0000 exact exchange contribution

 Linear response parameters
   LEPSILON=     T    determine dielectric tensor
   LRPA    =     F    only Hartree local field effects (RPA)
   LNABLA  =     F    use nabla operator in PAW spheres
   LVEL    =     F    velocity operator in full k-point grid
   CSHIFT  =0.1000    complex shift for real part using Kramers Kronig
   OMEGAMAX=  -1.0    maximum frequency
   DEG_THRESHOLD= 0.2000000E-02 threshold for treating states as degnerate
   RTIME   =   -0.100 relaxation time in fs
  (WPLASMAI=    0.000 imaginary part of plasma frequency in eV, 0.658/RTIME)
   DFIELD  = 0.0000000 0.0000000 0.0000000 field for delta impulse in time

  Optional k-point grid parameters
   LKPOINTS_OPT  =     F    use optional k-point grid
   KPOINTS_OPT_MODE=     1    mode for optional k-point grid

 Orbital magnetization related:
   ORBITALMAG=     F  switch on orbital magnetization
   LCHIMAG   =     F  perturbation theory with respect to B field
   DQ        =  0.001000  dq finite difference perturbation B field
   LLRAUG    =     F  two centre corrections for induced B field

 PEAD related settings:
   LPEAD      =     T    switch on PEAD
   IPEAD      =     4    finite difference order for dpsi/dk
   LCALCPOL   =     F    calculate macroscopic polarization
   LCALCEPS   =     F    calculate dielectric tensor
   EFIELD_PEAD=    0.0000    0.0000    0.0000
   SKIP_EDOTP =     F
   LRPA       =     F
   SKIP_SCF   =     F


--------------------------------------------------------------------------------------------------------


 Static calculation
 charge density and potential will be updated during run
 non-spin polarized calculation
 Variant of blocked Davidson
 Davidson routine will perform the subspace rotation
 perform sub-space diagonalisation
    after iterative eigenvector-optimisation
 modified Broyden-mixing scheme, WC =      100.0
 initial mixing is a Kerker type mixing with AMIX =  0.4000 and BMIX =      1.0000
 Hartree-type preconditioning will be used
 using additional bands           80
 real space projection scheme for non local part
 use partial core corrections
 calculate Harris-corrections to forces
   (improved forces if not selfconsistent)
 use gradient corrections
 use of overlap-Matrix (Vanderbilt PP)
 Gauss-broadening in eV      SIGMA  =   0.10


--------------------------------------------------------------------------------------------------------


  energy-cutoff  :      400.00
  volume of cell :     1243.14
      direct lattice vectors                 reciprocal lattice vectors
    11.376843452  0.000000000  0.000000000     0.087897843  0.000000000  0.000000000
     0.000000000 11.376843452  0.000000000     0.000000000  0.087897843  0.000000000
     0.000000000  0.000000000  9.604574204     0.000000000  0.000000000  0.104117057

  length of vectors
    11.376843452 11.376843452  9.604574204     0.087897843  0.087897843  0.104117057



 k-points in units of 2pi/SCALE and weight: K-Points
   0.02197446  0.02197446  0.02602926       0.250
  -0.02197446  0.02197446  0.02602926       0.250
  -0.02197446 -0.02197446  0.02602926       0.250
   0.02197446 -0.02197446  0.02602926       0.250

 k-points in reciprocal lattice and weights: K-Points
   0.25000000  0.25000000  0.25000000       0.250
  -0.25000000  0.25000000  0.25000000       0.250
  -0.25000000 -0.25000000  0.25000000       0.250
   0.25000000 -0.25000000  0.25000000       0.250

 position of ions in fractional coordinates (direct lattice)
   0.16666667  0.16666667  0.50000000
   0.16666667  0.50000000  0.50000000
   0.16666667  0.83333331  0.50000000
   0.50000000  0.16666667  0.50000000
   0.50000000  0.50000000  0.50000000
   0.50000000  0.83333331  0.50000000
   0.83333331  0.16666667  0.50000000
   0.83333331  0.50000000  0.50000000
   0.83333331  0.83333331  0.50000000
   0.16666667  0.00000000  0.75000000
   0.16666667  0.33333334  0.75000000
   0.16666667  0.66666669  0.75000000
   0.50000000  0.00000000  0.75000000
   0.50000000  0.33333334  0.75000000
   0.50000000  0.66666669  0.75000000
   0.83333331  0.00000000  0.75000000
   0.83333331  0.33333334  0.75000000
   0.83333331  0.66666669  0.75000000
   0.00000000  0.00000000  0.00000000
   0.00000000  0.33333334  0.00000000
   0.00000000  0.66666669  0.00000000
   0.33333334  0.00000000  0.00000000
   0.33333334  0.33333334  0.00000000
   0.33333334  0.66666669  0.00000000
   0.66666669  0.00000000  0.00000000
   0.66666669  0.33333334  0.00000000
   0.66666669  0.66666669  0.00000000
   0.00000000  0.16666667  0.25000000
   0.00000000  0.50000000  0.25000000
   0.00000000  0.83333331  0.25000000
   0.33333334  0.16666667  0.25000000
   0.33333334  0.50000000  0.25000000
   0.33333334  0.83333331  0.25000000
   0.66666669  0.16666667  0.25000000
   0.66666669  0.50000000  0.25000000
   0.66666669  0.83333331  0.25000000
   0.00000000  0.16666667  0.45789859
   0.00000000  0.50000000  0.45789859
   0.00000000  0.83333331  0.45789859
   0.33333334  0.16666667  0.45789859
   0.33333334  0.50000000  0.45789859
   0.33333334  0.83333331  0.45789859
   0.64908712  0.16666667  0.45789859
   0.66666669  0.50000000  0.45789859
   0.66666669  0.83333331  0.45789859
   0.16666667  0.16666667  0.70789862
   0.16666667  0.50000000  0.70789862
   0.16666667  0.83333331  0.70789862
   0.50000000  0.16666667  0.70789862
   0.50000000  0.50000000  0.70789862
   0.50000000  0.83333331  0.70789862
   0.83333331  0.16666667  0.70789862
   0.83333331  0.50000000  0.70789862
   0.83333331  0.83333331  0.70789862
   0.16666667  0.00000000  0.54210138
   0.16666667  0.33333334  0.54210138
   0.16666667  0.66666669  0.54210138
   0.50000000  0.00000000  0.54210138
   0.50000000  0.33333334  0.54210138
   0.50000000  0.66666669  0.54210138
   0.83333331  0.00000000  0.54210138
   0.83333331  0.33333334  0.54210138
   0.83333331  0.66666669  0.54210138
   0.00000000  0.00000000  0.79210138
   0.00000000  0.33333334  0.79210138
   0.00000000  0.66666669  0.79210138
   0.33333334  0.00000000  0.79210138
   0.33333334  0.33333334  0.79210138
   0.33333334  0.66666669  0.79210138
   0.66666669  0.00000000  0.79210138
   0.66666669  0.33333334  0.79210138
   0.66666669  0.66666669  0.79210138
   0.16666667  0.00000000  0.95789862
   0.16666667  0.33333334  0.95789862
   0.16666667  0.66666669  0.95789862
   0.50000000  0.00000000  0.95789862
   0.50000000  0.33333334  0.95789862
   0.50000000  0.66666669  0.95789862
   0.83333331  0.00000000  0.95789862
   0.83333331  0.33333334  0.95789862
   0.83333331  0.66666669  0.95789862
   0.00000000  0.00000000  0.20789860
   0.00000000  0.33333334  0.20789860
   0.00000000  0.66666669  0.20789860
   0.33333334  0.00000000  0.20789860
   0.33333334  0.33333334  0.20789860
   0.33333334  0.66666669  0.20789860
   0.66666669  0.00000000  0.20789860
   0.66666669  0.33333334  0.20789860
   0.66666669  0.66666669  0.20789860
   0.00000000  0.16666667  0.04210141
   0.00000000  0.50000000  0.04210141
   0.00000000  0.83333331  0.04210141
   0.33333334  0.16666667  0.04210141
   0.33333334  0.50000000  0.04210141
   0.33333334  0.83333331  0.04210141
   0.66666669  0.16666667  0.04210141
   0.66666669  0.50000000  0.04210141
   0.66666669  0.83333331  0.04210141
   0.16666667  0.16666667  0.29210141
   0.16666667  0.50000000  0.29210141
   0.16666667  0.83333331  0.29210141
   0.50000000  0.16666667  0.29210141
   0.50000000  0.50000000  0.29210141
   0.50000000  0.83333331  0.29210141
   0.83333331  0.16666667  0.29210141
   0.83333331  0.50000000  0.29210141
   0.83333331  0.83333331  0.29210141

 position of ions in cartesian coordinates  (Angst):
   1.89614063  1.89614063  4.80228710
   1.89614063  5.68842173  4.80228710
   1.89614063  9.48070265  4.80228710
   5.68842173  1.89614063  4.80228710
   5.68842173  5.68842173  4.80228710
   5.68842173  9.48070265  4.80228710
   9.48070265  1.89614063  4.80228710
   9.48070265  5.68842173  4.80228710
   9.48070265  9.48070265  4.80228710
   1.89614063  0.00000000  7.20343065
   1.89614063  3.79228126  7.20343065
   1.89614063  7.58456253  7.20343065
   5.68842173  0.00000000  7.20343065
   5.68842173  3.79228126  7.20343065
   5.68842173  7.58456253  7.20343065
   9.48070265  0.00000000  7.20343065
   9.48070265  3.79228126  7.20343065
   9.48070265  7.58456253  7.20343065
   0.00000000  0.00000000  0.00000000
   0.00000000  3.79228126  0.00000000
   0.00000000  7.58456253  0.00000000
   3.79228126  0.00000000  0.00000000
   3.79228126  3.79228126  0.00000000
   3.79228126  7.58456253  0.00000000
   7.58456253  0.00000000  0.00000000
   7.58456253  3.79228126  0.00000000
   7.58456253  7.58456253  0.00000000
   0.00000000  1.89614063  2.40114355
   0.00000000  5.68842173  2.40114355
   0.00000000  9.48070265  2.40114355
   3.79228126  1.89614063  2.40114355
   3.79228126  5.68842173  2.40114355
   3.79228126  9.48070265  2.40114355
   7.58456253  1.89614063  2.40114355
   7.58456253  5.68842173  2.40114355
   7.58456253  9.48070265  2.40114355
   0.00000000  1.89614063  4.39792096
   0.00000000  5.68842173  4.39792096
   0.00000000  9.48070265  4.39792096
   3.79228126  1.89614063  4.39792096
   3.79228126  5.68842173  4.39792096
   3.79228126  9.48070265  4.39792096
   7.38456253  1.89614063  4.39792096
   7.58456253  5.68842173  4.39792096
   7.58456253  9.48070265  4.39792096
   1.89614063  1.89614063  6.79906479
   1.89614063  5.68842173  6.79906479
   1.89614063  9.48070265  6.79906479
   5.68842173  1.89614063  6.79906479
   5.68842173  5.68842173  6.79906479
   5.68842173  9.48070265  6.79906479
   9.48070265  1.89614063  6.79906479
   9.48070265  5.68842173  6.79906479
   9.48070265  9.48070265  6.79906479
   1.89614063  0.00000000  5.20665296
   1.89614063  3.79228126  5.20665296
   1.89614063  7.58456253  5.20665296
   5.68842173  0.00000000  5.20665296
   5.68842173  3.79228126  5.20665296
   5.68842173  7.58456253  5.20665296
   9.48070265  0.00000000  5.20665296
   9.48070265  3.79228126  5.20665296
   9.48070265  7.58456253  5.20665296
   0.00000000  0.00000000  7.60779651
   0.00000000  3.79228126  7.60779651
   0.00000000  7.58456253  7.60779651
   3.79228126  0.00000000  7.60779651
   3.79228126  3.79228126  7.60779651
   3.79228126  7.58456253  7.60779651
   7.58456253  0.00000000  7.60779651
   7.58456253  3.79228126  7.60779651
   7.58456253  7.58456253  7.60779651
   1.89614063  0.00000000  9.20020834
   1.89614063  3.79228126  9.20020834
   1.89614063  7.58456253  9.20020834
   5.68842173  0.00000000  9.20020834
   5.68842173  3.79228126  9.20020834
   5.68842173  7.58456253  9.20020834
   9.48070265  0.00000000  9.20020834
   9.48070265  3.79228126  9.20020834
   9.48070265  7.58456253  9.20020834
   0.00000000  0.00000000  1.99677755
   0.00000000  3.79228126  1.99677755
   0.00000000  7.58456253  1.99677755
   3.79228126  0.00000000  1.99677755
   3.79228126  3.79228126  1.99677755
   3.79228126  7.58456253  1.99677755
   7.58456253  0.00000000  1.99677755
   7.58456253  3.79228126  1.99677755
   7.58456253  7.58456253  1.99677755
   0.00000000  1.89614063  0.40436607
   0.00000000  5.68842173  0.40436607
   0.00000000  9.48070265  0.40436607
   3.79228126  1.89614063  0.40436607
   3.79228126  5.68842173  0.40436607
   3.79228126  9.48070265  0.40436607
   7.58456253  1.89614063  0.40436607
   7.58456253  5.68842173  0.40436607
   7.58456253  9.48070265  0.40436607
   1.89614063  1.89614063  2.80550970
   1.89614063  5.68842173  2.80550970
   1.89614063  9.48070265  2.80550970
   5.68842173  1.89614063  2.80550970
   5.68842173  5.68842173  2.80550970
   5.68842173  9.48070265  2.80550970
   9.48070265  1.89614063  2.80550970
   9.48070265  5.68842173  2.80550970
   9.48070265  9.48070265  2.80550970



--------------------------------------------------------------------------------------------------------


 k-point   1 :   0.2500 0.2500 0.2500  plane waves:   22590
 k-point   2 :  -0.2500 0.2500 0.2500  plane waves:   22590
 k-point   3 :  -0.2500-0.2500 0.2500  plane waves:   22590
 k-point   4 :   0.2500-0.2500 0.2500  plane waves:   22590

 maximum and minimum number of plane-waves per node :     22590    22590

 maximum number of plane-waves:     22590
 maximum index in each direction:
   IXMAX=   18   IYMAX=   18   IZMAX=   15
   IXMIN=  -18   IYMIN=  -18   IZMIN=  -15


 serial   3D FFT for wavefunctions
 parallel 3D FFT for charge:
    minimum data exchange during FFTs selected (reduces bandwidth)


 total amount of memory used by VASP MPI-rank0   266725. kBytes
=======================================================================

   base      :      30000. kBytes
   nonlr-proj:      19556. kBytes
   fftplans  :      10927. kBytes
   grid      :      23181. kBytes
   one-center:       1679. kBytes
   wavefun   :     181382. kBytes

     INWAV:  cpu time      0.0000: real time      0.0002
 Broyden mixing: mesh for mixing (old mesh)
   NGX = 37   NGY = 37   NGZ = 31
  (NGX  =112   NGY  =112   NGZ  = 96)
  gives a total of  42439 points

 initial charge density was supplied:
 charge density of overlapping atoms calculated
 number of electron     792.0000000 magnetization
 keeping initial charge density in first step


--------------------------------------------------------------------------------------------------------


 Maximum index for non-local projection operator         1743
 Maximum index for augmentation-charges         1189 (set IRDMAX)


--------------------------------------------------------------------------------------------------------


 First call to EWALD:  gamma=   0.165
 Maximum number of real-space cells 3x 3x 3
 Maximum number of reciprocal cells 3x 3x 3

    FEWALD:  cpu time      0.0029: real time      0.0034


--------------------------------------- Iteration      1(   1)  ---------------------------------------


    POTLOK:  cpu time      0.1554: real time      0.1570
    SETDIJ:  cpu time      0.0297: real time      0.0306
     EDDAV:  cpu time     12.2359: real time     12.3662
       DOS:  cpu time      0.0019: real time      0.0023
    --------------------------------------------
      LOOP:  cpu time     12.4229: real time     12.5560

 eigenvalue-minimisations  :  3824
 total energy-change (2. order) : 0.1156138E+05  (-0.3305604E+05)
 number of electron     792.0000000 magnetization
 augmentation part      792.0000000 magnetization

 Free energy of the ion-electron system (eV)
  ---------------------------------------------------
  alpha Z        PSCENC =      3563.47650690
  Ewald energy   TEWEN  =    -48577.80539665
  -Hartree energ DENC   =    -18849.81636102
  -exchange      EXHF   =         0.00000000
  -V(xc)+E(xc)   XCENC  =      3286.95546478
  PAW double counting   =     54431.09303398   -54537.79254336
  entropy T*S    EENTRO =        -0.14362722
  eigenvalues    EBANDS =      3589.01224261
  atomic energy  EATOM  =     68656.39924158
  Solvation  Ediel_sol  =         0.00000000
  ---------------------------------------------------
  free energy    TOTEN  =     11561.37856160 eV

  energy without entropy =    11561.52218881  energy(sigma->0) =    11561.45037521


--------------------------------------------------------------------------------------------------------




--------------------------------------- Iteration      1(   2)  ---------------------------------------


     EDDAV:  cpu time     11.9269: real time     12.0326
       DOS:  cpu time      0.0009: real time      0.0009
    --------------------------------------------
      LOOP:  cpu time     11.9277: real time     12.0335

 eigenvalue-minimisations  :  3808
 total energy-change (2. order) :-0.9987667E+04  (-0.9556873E+04)
 number of electron     792.0000000 magnetization
 augmentation part      792.0000000 magnetization

 Free energy of the ion-electron system (eV)
  ---------------------------------------------------
  alpha Z        PSCENC =      3563.47650690
  Ewald energy   TEWEN  =    -48577.80539665
  -Hartree energ DENC   =    -18849.81636102
  -exchange      EXHF   =         0.00000000
  -V(xc)+E(xc)   XCENC  =      3286.95546478
  PAW double counting   =     54431.09303398   -54537.79254336
  entropy T*S    EENTRO =        -0.28688821
  eigenvalues    EBANDS =     -6398.51197188
  atomic energy  EATOM  =     68656.39924158
  Solvation  Ediel_sol  =         0.00000000
  ---------------------------------------------------
  free energy    TOTEN  =      1573.71108612 eV

  energy without entropy =     1573.99797432  energy(sigma->0) =     1573.85453022


--------------------------------------------------------------------------------------------------------




--------------------------------------- Iteration      1(   3)  ---------------------------------------


     EDDAV:  cpu time     13.3878: real time     13.5057
       DOS:  cpu time      0.0006: real time      0.0006
    --------------------------------------------
      LOOP:  cpu time     13.3884: real time     13.5062

 eigenvalue-minimisations  :  4416
 total energy-change (2. order) :-0.2641537E+04  (-0.2569231E+04)
 number of electron     792.0000000 magnetization
 augmentation part      792.0000000 magnetization

 Free energy of the ion-electron system (eV)
  ---------------------------------------------------
  alpha Z        PSCENC =      3563.47650690
  Ewald energy   TEWEN  =    -48577.80539665
  -Hartree energ DENC   =    -18849.81636102
  -exchange      EXHF   =         0.00000000
  -V(xc)+E(xc)   XCENC  =      3286.95546478
  PAW double counting   =     54431.09303398   -54537.79254336
  entropy T*S    EENTRO =        -0.00000000
  eigenvalues    EBANDS =     -9040.33542098
  atomic energy  EATOM  =     68656.39924158
  Solvation  Ediel_sol  =         0.00000000
  ---------------------------------------------------
  free energy    TOTEN  =     -1067.82547477 eV

  energy without entropy =    -1067.82547477  energy(sigma->0) =    -1067.82547477


--------------------------------------------------------------------------------------------------------




--------------------------------------- Iteration      1(   4)  ---------------------------------------


     EDDAV:  cpu time     15.1383: real time     15.2645
       DOS:  cpu time      0.0006: real time      0.0006
    --------------------------------------------
      LOOP:  cpu time     15.1389: real time     15.2651

 eigenvalue-minimisations  :  5080
 total energy-change (2. order) :-0.2052347E+03  (-0.2041553E+03)
 number of electron     792.0000000 magnetization
 augmentation part      792.0000000 magnetization

 Free energy of the ion-electron system (eV)
  ---------------------------------------------------
  alpha Z        PSCENC =      3563.47650690
  Ewald energy   TEWEN  =    -48577.80539665
  -Hartree energ DENC   =    -18849.81636102
  -exchange      EXHF   =         0.00000000
  -V(xc)+E(xc)   XCENC  =      3286.95546478
  PAW double counting   =     54431.09303398   -54537.79254336
  entropy T*S    EENTRO =        -0.00000000
  eigenvalues    EBANDS =     -9245.57012182
  atomic energy  EATOM  =     68656.39924158
  Solvation  Ediel_sol  =         0.00000000
  ---------------------------------------------------
  free energy    TOTEN  =     -1273.06017562 eV

  energy without entropy =    -1273.06017562  energy(sigma->0) =    -1273.06017562


--------------------------------------------------------------------------------------------------------




--------------------------------------- Iteration      1(   5)  ---------------------------------------


     EDDAV:  cpu time     14.8636: real time     14.9869
       DOS:  cpu time      0.0006: real time      0.0006
    CHARGE:  cpu time      0.1985: real time      0.2075
    MIXING:  cpu time      0.0096: real time      0.0110
    --------------------------------------------
      LOOP:  cpu time     15.0723: real time     15.2060

 eigenvalue-minimisations  :  4960
 total energy-change (2. order) :-0.5181028E+01  (-0.5169862E+01)
 number of electron     792.0003060 magnetization
 augmentation part      202.2642230 magnetization

 Broyden mixing:
  rms(total) = 0.17291E+02    rms(broyden)= 0.17289E+02
  rms(prec ) = 0.19223E+02
  weight for this iteration     100.00

 Free energy of the ion-electron system (eV)
  ---------------------------------------------------
  alpha Z        PSCENC =      3563.47650690
  Ewald energy   TEWEN  =    -48577.80539665
  -Hartree energ DENC   =    -18849.81636102
  -exchange      EXHF   =         0.00000000
  -V(xc)+E(xc)   XCENC  =      3286.95546478
  PAW double counting   =     54431.09303398   -54537.79254336
  entropy T*S    EENTRO =        -0.00000000
  eigenvalues    EBANDS =     -9250.75115002
  atomic energy  EATOM  =     68656.39924158
  Solvation  Ediel_sol  =         0.00000000
  ---------------------------------------------------
  free energy    TOTEN  =     -1278.24120381 eV

  energy without entropy =    -1278.24120381  energy(sigma->0) =    -1278.24120381


--------------------------------------------------------------------------------------------------------




--------------------------------------- Iteration      1(   6)  ---------------------------------------


    POTLOK:  cpu time      0.1564: real time      0.1579
    SETDIJ:  cpu time      0.0191: real time      0.0193
     EDDAV:  cpu time     14.8237: real time     14.9465
       DOS:  cpu time      0.0006: real time      0.0006
    CHARGE:  cpu time      0.1934: real time      0.2022
    MIXING:  cpu time      0.0106: real time      0.0274
    --------------------------------------------
      LOOP:  cpu time     15.2038: real time     15.3540

 eigenvalue-minimisations  :  4968
 total energy-change (2. order) : 0.3024166E+03  (-0.1974835E+03)
 number of electron     792.0002464 magnetization
 augmentation part      214.1221905 magnetization

 Broyden mixing:
  rms(total) = 0.53284E+01    rms(broyden)= 0.53234E+01
  rms(prec ) = 0.58531E+01
  weight for this iteration     100.00

 eigenvalues of (default mixing * dielectric matrix)
  average eigenvalue GAMMA=   0.9671
  0.9671

 Free energy of the ion-electron system (eV)
  ---------------------------------------------------
  alpha Z        PSCENC =      3563.47650690
  Ewald energy   TEWEN  =    -48577.80539665
  -Hartree energ DENC   =    -19076.29398208
  -exchange      EXHF   =         0.00000000
  -V(xc)+E(xc)   XCENC  =      3338.02705132
  PAW double counting   =     68301.33750389   -68533.66832864
  entropy T*S    EENTRO =        -0.00000000
  eigenvalues    EBANDS =     -8647.29721210
  atomic energy  EATOM  =     68656.39924158
  Solvation  Ediel_sol  =         0.00000000
  ---------------------------------------------------
  free energy    TOTEN  =      -975.82461577 eV

  energy without entropy =     -975.82461577  energy(sigma->0) =     -975.82461577


--------------------------------------------------------------------------------------------------------




--------------------------------------- Iteration      1(   7)  ---------------------------------------


    POTLOK:  cpu time      0.1582: real time      0.1600
    SETDIJ:  cpu time      0.0086: real time      0.0087
     EDDAV:  cpu time     16.2927: real time     16.4236
       DOS:  cpu time      0.0006: real time      0.0006
    CHARGE:  cpu time      0.1951: real time      0.2042
    MIXING:  cpu time      0.0095: real time      0.0097
    --------------------------------------------
      LOOP:  cpu time     16.6645: real time     16.8068

 eigenvalue-minimisations  :  5336
 total energy-change (2. order) : 0.4155055E+01  (-0.2865055E+02)
 number of electron     792.0002655 magnetization
 augmentation part      207.3511147 magnetization

 Broyden mixing:
  rms(total) = 0.46066E+01    rms(broyden)= 0.46063E+01
  rms(prec ) = 0.48004E+01
  weight for this iteration     100.00

 eigenvalues of (default mixing * dielectric matrix)
  average eigenvalue GAMMA=   1.8247
  0.7372  2.9121

 Free energy of the ion-electron system (eV)
  ---------------------------------------------------
  alpha Z        PSCENC =      3563.47650690
  Ewald energy   TEWEN  =    -48577.80539665
  -Hartree energ DENC   =    -18919.38880008
  -exchange      EXHF   =         0.00000000
  -V(xc)+E(xc)   XCENC  =      3318.82716460
  PAW double counting   =     75346.75276757   -75590.13918734
  entropy T*S    EENTRO =        -0.00000000
  eigenvalues    EBANDS =     -8769.79185701
  atomic energy  EATOM  =     68656.39924158
  Solvation  Ediel_sol  =         0.00000000
  ---------------------------------------------------
  free energy    TOTEN  =      -971.66956043 eV

  energy without entropy =     -971.66956043  energy(sigma->0) =     -971.66956043


--------------------------------------------------------------------------------------------------------




--------------------------------------- Iteration      1(   8)  ---------------------------------------


    POTLOK:  cpu time      0.1505: real time      0.1522
    SETDIJ:  cpu time      0.0198: real time      0.0200
     EDDAV:  cpu time     15.2045: real time     15.3269
       DOS:  cpu time      0.0008: real time      0.0008
    CHARGE:  cpu time      0.2145: real time      0.2206
    MIXING:  cpu time      0.0124: real time      0.0124
    --------------------------------------------
      LOOP:  cpu time     15.6024: real time     15.7330

 eigenvalue-minimisations  :  5120
 total energy-change (2. order) : 0.1278053E+00  (-0.1077711E+02)
 number of electron     792.0002588 magnetization
 augmentation part      215.4517535 magnetization

 Broyden mixing:
  rms(total) = 0.32702E+01    rms(broyden)= 0.32701E+01
  rms(prec ) = 0.35774E+01
  weight for this iteration     100.00

 eigenvalues of (default mixing * dielectric matrix)
  average eigenvalue GAMMA=   1.2362
  2.2340  0.8945  0.5801

 Free energy of the ion-electron system (eV)
  ---------------------------------------------------
  alpha Z        PSCENC =      3563.47650690
  Ewald energy   TEWEN  =    -48577.80539665
  -Hartree energ DENC   =    -18549.83974840
  -exchange      EXHF   =         0.00000000
  -V(xc)+E(xc)   XCENC  =      3304.31927023
  PAW double counting   =     93689.06570199   -94003.52448360
  entropy T*S    EENTRO =        -0.00000000
  eigenvalues    EBANDS =     -9053.63284721
  atomic energy  EATOM  =     68656.39924158
  Solvation  Ediel_sol  =         0.00000000
  ---------------------------------------------------
  free energy    TOTEN  =      -971.54175517 eV

  energy without entropy =     -971.54175517  energy(sigma->0) =     -971.54175517


--------------------------------------------------------------------------------------------------------




--------------------------------------- Iteration      1(   9)  ---------------------------------------


    POTLOK:  cpu time      0.1507: real time      0.1524
    SETDIJ:  cpu time      0.0232: real time      0.0234
     EDDAV:  cpu time     15.7781: real time     15.9019
       DOS:  cpu time      0.0010: real time      0.0010
    CHARGE:  cpu time      0.1952: real time      0.2027
    MIXING:  cpu time      0.0111: real time      0.0111
    --------------------------------------------
      LOOP:  cpu time     16.1594: real time     16.2925

 eigenvalue-minimisations  :  5192
 total energy-change (2. order) : 0.5341311E+01  (-0.3160827E+01)
 number of electron     792.0002634 magnetization
 augmentation part      211.6756199 magnetization

 Broyden mixing:
  rms(total) = 0.40167E+00    rms(broyden)= 0.40116E+00
  rms(prec ) = 0.43194E+00
  weight for this iteration     100.00

 eigenvalues of (default mixing * dielectric matrix)
  average eigenvalue GAMMA=   1.0572
  2.1498  0.8989  0.5901  0.5901

 Free energy of the ion-electron system (eV)
  ---------------------------------------------------
  alpha Z        PSCENC =      3563.47650690
  Ewald energy   TEWEN  =    -48577.80539665
  -Hartree energ DENC   =    -18680.98793447
  -exchange      EXHF   =         0.00000000
  -V(xc)+E(xc)   XCENC  =      3308.74625780
  PAW double counting   =     89009.09288034   -89306.49895593
  entropy T*S    EENTRO =        -0.00000000
  eigenvalues    EBANDS =     -8938.62304329
  atomic energy  EATOM  =     68656.39924158
  Solvation  Ediel_sol  =         0.00000000
  ---------------------------------------------------
  free energy    TOTEN  =      -966.20044372 eV

  energy without entropy =     -966.20044372  energy(sigma->0) =     -966.20044372


--------------------------------------------------------------------------------------------------------




--------------------------------------- Iteration      1(  10)  ---------------------------------------


    POTLOK:  cpu time      0.1536: real time      0.1549
    SETDIJ:  cpu time      0.0096: real time      0.0097
     EDDAV:  cpu time     15.7787: real time     15.9059
       DOS:  cpu time      0.0006: real time      0.0006
    CHARGE:  cpu time      0.1964: real time      0.2029
    MIXING:  cpu time      0.0125: real time      0.0125
    --------------------------------------------
      LOOP:  cpu time     16.1512: real time     16.2867

 eigenvalue-minimisations  :  5320
 total energy-change (2. order) :-0.6407241E-02  (-0.9985542E-01)
 number of electron     792.0002633 magnetization
 augmentation part      211.4357246 magnetization

 Broyden mixing:
  rms(total) = 0.19152E+00    rms(broyden)= 0.19142E+00
  rms(prec ) = 0.21205E+00
  weight for this iteration     100.00

 eigenvalues of (default mixing * dielectric matrix)
  average eigenvalue GAMMA=   1.2127
  2.3634  1.2738  1.2738  0.6475  0.5050

 Free energy of the ion-electron system (eV)
  ---------------------------------------------------
  alpha Z        PSCENC =      3563.47650690
  Ewald energy   TEWEN  =    -48577.80539665
  -Hartree energ DENC   =    -18705.27626048
  -exchange      EXHF   =         0.00000000
  -V(xc)+E(xc)   XCENC  =      3310.15262712
  PAW double counting   =     88771.70086072   -89069.28035993
  entropy T*S    EENTRO =        -0.00000000
  eigenvalues    EBANDS =     -8915.57407022
  atomic energy  EATOM  =     68656.39924158
  Solvation  Ediel_sol  =         0.00000000
  ---------------------------------------------------
  free energy    TOTEN  =      -966.20685096 eV

  energy without entropy =     -966.20685096  energy(sigma->0) =     -966.20685096


--------------------------------------------------------------------------------------------------------




--------------------------------------- Iteration      1(  11)  ---------------------------------------


    POTLOK:  cpu time      0.1413: real time      0.1429
    SETDIJ:  cpu time      0.0264: real time      0.0266
     EDDAV:  cpu time     15.6554: real time     15.7900
       DOS:  cpu time      0.0006: real time      0.0006
    CHARGE:  cpu time      0.1934: real time      0.1944
    MIXING:  cpu time      0.0133: real time      0.0133
    --------------------------------------------
      LOOP:  cpu time     16.0303: real time     16.1678

 eigenvalue-minimisations  :  5336
 total energy-change (2. order) :-0.8307652E-01  (-0.8235153E-01)
 number of electron     792.0002621 magnetization
 augmentation part      211.6138610 magnetization

 Broyden mixing:
  rms(total) = 0.28238E+00    rms(broyden)= 0.28233E+00
  rms(prec ) = 0.33508E+00
  weight for this iteration     100.00

 eigenvalues of (default mixing * dielectric matrix)
  average eigenvalue GAMMA=   1.2176
  2.4949  1.8199  0.9180  0.9180  0.5775  0.5775

 Free energy of the ion-electron system (eV)
  ---------------------------------------------------
  alpha Z        PSCENC =      3563.47650690
  Ewald energy   TEWEN  =    -48577.80539665
  -Hartree energ DENC   =    -18745.03314254
  -exchange      EXHF   =         0.00000000
  -V(xc)+E(xc)   XCENC  =      3313.11391044
  PAW double counting   =     89280.46292186   -89582.51039746
  entropy T*S    EENTRO =        -0.00000000
  eigenvalues    EBANDS =     -8874.39357160
  atomic energy  EATOM  =     68656.39924158
  Solvation  Ediel_sol  =         0.00000000
  ---------------------------------------------------
  free energy    TOTEN  =      -966.28992748 eV

  energy without entropy =     -966.28992748  energy(sigma->0) =     -966.28992748


--------------------------------------------------------------------------------------------------------




--------------------------------------- Iteration      1(  12)  ---------------------------------------


    POTLOK:  cpu time      0.1446: real time      0.1459
    SETDIJ:  cpu time      0.0340: real time      0.0344
     EDDAV:  cpu time     15.6335: real time     15.7557
       DOS:  cpu time      0.0006: real time      0.0006
    CHARGE:  cpu time      0.1990: real time      0.2017
    MIXING:  cpu time      0.0121: real time      0.0122
    --------------------------------------------
      LOOP:  cpu time     16.0238: real time     16.1506

 eigenvalue-minimisations  :  5272
 total energy-change (2. order) : 0.8106069E-01  (-0.5088496E-01)
 number of electron     792.0002629 magnetization
 augmentation part      211.2471067 magnetization

 Broyden mixing:
  rms(total) = 0.30845E-01    rms(broyden)= 0.30679E-01
  rms(prec ) = 0.34564E-01
  weight for this iteration     100.00

 eigenvalues of (default mixing * dielectric matrix)
  average eigenvalue GAMMA=   1.1613
  2.5940  1.7959  0.9677  0.9677  0.6859  0.5590  0.5590

 Free energy of the ion-electron system (eV)
  ---------------------------------------------------
  alpha Z        PSCENC =      3563.47650690
  Ewald energy   TEWEN  =    -48577.80539665
  -Hartree energ DENC   =    -18750.34360344
  -exchange      EXHF   =         0.00000000
  -V(xc)+E(xc)   XCENC  =      3313.00897083
  PAW double counting   =     89330.33458689   -89632.17766197
  entropy T*S    EENTRO =        -0.00000000
  eigenvalues    EBANDS =     -8869.10151092
  atomic energy  EATOM  =     68656.39924158
  Solvation  Ediel_sol  =         0.00000000
  ---------------------------------------------------
  free energy    TOTEN  =      -966.20886679 eV

  energy without entropy =     -966.20886679  energy(sigma->0) =     -966.20886679


--------------------------------------------------------------------------------------------------------




--------------------------------------- Iteration      1(  13)  ---------------------------------------


    POTLOK:  cpu time      0.1457: real time      0.1477
    SETDIJ:  cpu time      0.0180: real time      0.0184
     EDDAV:  cpu time     15.2107: real time     15.3360
       DOS:  cpu time      0.0006: real time      0.0006
    CHARGE:  cpu time      0.1983: real time      0.2003
    MIXING:  cpu time      0.0133: real time      0.0134
    --------------------------------------------
      LOOP:  cpu time     15.5867: real time     15.7163

 eigenvalue-minimisations  :  5040
 total energy-change (2. order) :-0.2217053E-02  (-0.2189460E-02)
 number of electron     792.0002629 magnetization
 augmentation part      211.2304227 magnetization

 Broyden mixing:
  rms(total) = 0.20158E-01    rms(broyden)= 0.20119E-01
  rms(prec ) = 0.23302E-01
  weight for this iteration     100.00

 eigenvalues of (default mixing * dielectric matrix)
  average eigenvalue GAMMA=   1.1387
  2.5878  1.6905  1.2548  1.0643  0.6700  0.6700  0.5690  0.6035

 Free energy of the ion-electron system (eV)
  ---------------------------------------------------
  alpha Z        PSCENC =      3563.47650690
  Ewald energy   TEWEN  =    -48577.80539665
  -Hartree energ DENC   =    -18749.97555190
  -exchange      EXHF   =         0.00000000
  -V(xc)+E(xc)   XCENC  =      3312.95694659
  PAW double counting   =     89382.40852591   -89684.29920002
  entropy T*S    EENTRO =        -0.00000000
  eigenvalues    EBANDS =     -8869.37215626
  atomic energy  EATOM  =     68656.39924158
  Solvation  Ediel_sol  =         0.00000000
  ---------------------------------------------------
  free energy    TOTEN  =      -966.21108384 eV

  energy without entropy =     -966.21108384  energy(sigma->0) =     -966.21108384


--------------------------------------------------------------------------------------------------------




--------------------------------------- Iteration      1(  14)  ---------------------------------------


    POTLOK:  cpu time      0.1515: real time      0.1532
    SETDIJ:  cpu time      0.0170: real time      0.0171
     EDDAV:  cpu time     14.9964: real time     15.1156
       DOS:  cpu time      0.0005: real time      0.0005
    CHARGE:  cpu time      0.2027: real time      0.2040
    MIXING:  cpu time      0.0131: real time      0.0131
    --------------------------------------------
      LOOP:  cpu time     15.3811: real time     15.5035

 eigenvalue-minimisations  :  4952
 total energy-change (2. order) :-0.2149897E-03  (-0.1334460E-03)
 number of electron     792.0002629 magnetization
 augmentation part      211.2404478 magnetization

 Broyden mixing:
  rms(total) = 0.13389E-01    rms(broyden)= 0.13388E-01
  rms(prec ) = 0.15907E-01
  weight for this iteration     100.00

 eigenvalues of (default mixing * dielectric matrix)
  average eigenvalue GAMMA=   1.1589
  2.5730  1.7687  1.5751  1.0664  0.8531  0.8531  0.5570  0.5570  0.6265

 Free energy of the ion-electron system (eV)
  ---------------------------------------------------
  alpha Z        PSCENC =      3563.47650690
  Ewald energy   TEWEN  =    -48577.80539665
  -Hartree energ DENC   =    -18750.00442673
  -exchange      EXHF   =         0.00000000
  -V(xc)+E(xc)   XCENC  =      3312.95476414
  PAW double counting   =     89381.93609216   -89683.69031969
  entropy T*S    EENTRO =        -0.00000000
  eigenvalues    EBANDS =     -8869.47776054
  atomic energy  EATOM  =     68656.39924158
  Solvation  Ediel_sol  =         0.00000000
  ---------------------------------------------------
  free energy    TOTEN  =      -966.21129883 eV

  energy without entropy =     -966.21129883  energy(sigma->0) =     -966.21129883


--------------------------------------------------------------------------------------------------------




--------------------------------------- Iteration      1(  15)  ---------------------------------------


    POTLOK:  cpu time      0.1510: real time      0.1526
    SETDIJ:  cpu time      0.0157: real time      0.0157
     EDDAV:  cpu time     15.7766: real time     15.9024
       DOS:  cpu time      0.0006: real time      0.0006
    CHARGE:  cpu time      0.1918: real time      0.1932
    MIXING:  cpu time      0.0136: real time      0.0137
    --------------------------------------------
      LOOP:  cpu time     16.1492: real time     16.2782

 eigenvalue-minimisations  :  5328
 total energy-change (2. order) :-0.1437427E-03  (-0.8365673E-04)
 number of electron     792.0002629 magnetization
 augmentation part      211.2440489 magnetization

 Broyden mixing:
  rms(total) = 0.76652E-02    rms(broyden)= 0.76628E-02
  rms(prec ) = 0.92379E-02
  weight for this iteration     100.00

 eigenvalues of (default mixing * dielectric matrix)
  average eigenvalue GAMMA=   1.1798
  2.6043  2.3136  1.7795  0.8733  0.8733  0.8089  0.8089  0.5780  0.5780  0.5807

 Free energy of the ion-electron system (eV)
  ---------------------------------------------------
  alpha Z        PSCENC =      3563.47650690
  Ewald energy   TEWEN  =    -48577.80539665
  -Hartree energ DENC   =    -18750.75305927
  -exchange      EXHF   =         0.00000000
  -V(xc)+E(xc)   XCENC  =      3312.99312729
  PAW double counting   =     89366.71972690   -89668.34184066
  entropy T*S    EENTRO =        -0.00000000
  eigenvalues    EBANDS =     -8868.89974866
  atomic energy  EATOM  =     68656.39924158
  Solvation  Ediel_sol  =         0.00000000
  ---------------------------------------------------
  free energy    TOTEN  =      -966.21144258 eV

  energy without entropy =     -966.21144258  energy(sigma->0) =     -966.21144258


--------------------------------------------------------------------------------------------------------




--------------------------------------- Iteration      1(  16)  ---------------------------------------


    POTLOK:  cpu time      0.1519: real time      0.1536
    SETDIJ:  cpu time      0.0156: real time      0.0164
     EDDAV:  cpu time     15.7709: real time     15.8999
       DOS:  cpu time      0.0007: real time      0.0007
    CHARGE:  cpu time      0.1920: real time      0.1941
    MIXING:  cpu time      0.0138: real time      0.0139
    --------------------------------------------
      LOOP:  cpu time     16.1448: real time     16.2785

 eigenvalue-minimisations  :  5336
 total energy-change (2. order) :-0.3651695E-04  (-0.6364064E-04)
 number of electron     792.0002629 magnetization
 augmentation part      211.2550753 magnetization

 Broyden mixing:
  rms(total) = 0.34297E-02    rms(broyden)= 0.34267E-02
  rms(prec ) = 0.40741E-02
  weight for this iteration     100.00

 eigenvalues of (default mixing * dielectric matrix)
  average eigenvalue GAMMA=   1.1674
  2.6304  2.4972  1.7794  0.9288  0.9288  0.8333  0.8333  0.7109  0.5684  0.5684
  0.5623

 Free energy of the ion-electron system (eV)
  ---------------------------------------------------
  alpha Z        PSCENC =      3563.47650690
  Ewald energy   TEWEN  =    -48577.80539665
  -Hartree energ DENC   =    -18751.23967615
  -exchange      EXHF   =         0.00000000
  -V(xc)+E(xc)   XCENC  =      3313.02695911
  PAW double counting   =     89361.58429786   -89663.14107475
  entropy T*S    EENTRO =        -0.00000000
  eigenvalues    EBANDS =     -8868.51233699
  atomic energy  EATOM  =     68656.39924158
  Solvation  Ediel_sol  =         0.00000000
  ---------------------------------------------------
  free energy    TOTEN  =      -966.21147909 eV

  energy without entropy =     -966.21147909  energy(sigma->0) =     -966.21147909


--------------------------------------------------------------------------------------------------------




--------------------------------------- Iteration      1(  17)  ---------------------------------------


    POTLOK:  cpu time      0.1403: real time      0.1419
    SETDIJ:  cpu time      0.0282: real time      0.0283
     EDDAV:  cpu time     15.5185: real time     15.6481
       DOS:  cpu time      0.0005: real time      0.0006
    CHARGE:  cpu time      0.2249: real time      0.2265
    MIXING:  cpu time      0.0133: real time      0.0134
    --------------------------------------------
      LOOP:  cpu time     15.9257: real time     16.0586

 eigenvalue-minimisations  :  5344
 total energy-change (2. order) :-0.7520066E-05  (-0.1136522E-04)
 number of electron     792.0002629 magnetization
 augmentation part      211.2552603 magnetization

 Broyden mixing:
  rms(total) = 0.25764E-02    rms(broyden)= 0.25750E-02
  rms(prec ) = 0.30360E-02
  weight for this iteration     100.00

 eigenvalues of (default mixing * dielectric matrix)
  average eigenvalue GAMMA=   1.1435
  2.7019  2.5397  1.7317  0.9765  0.9765  0.8562  0.8562  0.6964  0.6964  0.5749
  0.5749  0.5402

 Free energy of the ion-electron system (eV)
  ---------------------------------------------------
  alpha Z        PSCENC =      3563.47650690
  Ewald energy   TEWEN  =    -48577.80539665
  -Hartree energ DENC   =    -18751.38786397
  -exchange      EXHF   =         0.00000000
  -V(xc)+E(xc)   XCENC  =      3313.03252503
  PAW double counting   =     89358.60338148   -89660.13649740
  entropy T*S    EENTRO =        -0.00000000
  eigenvalues    EBANDS =     -8868.39338358
  atomic energy  EATOM  =     68656.39924158
  Solvation  Ediel_sol  =         0.00000000
  ---------------------------------------------------
  free energy    TOTEN  =      -966.21148661 eV

  energy without entropy =     -966.21148661  energy(sigma->0) =     -966.21148661


--------------------------------------------------------------------------------------------------------




--------------------------------------- Iteration      1(  18)  ---------------------------------------


    POTLOK:  cpu time      0.1469: real time      0.1482
    SETDIJ:  cpu time      0.0203: real time      0.0204
     EDDAV:  cpu time     15.8458: real time     15.9725
       DOS:  cpu time      0.0006: real time      0.0006
    CHARGE:  cpu time      0.2036: real time      0.2060
    MIXING:  cpu time      0.0137: real time      0.0137
    --------------------------------------------
      LOOP:  cpu time     16.2309: real time     16.3615

 eigenvalue-minimisations  :  5328
 total energy-change (2. order) : 0.2748711E-05  (-0.3261236E-05)
 number of electron     792.0002629 magnetization
 augmentation part      211.2532923 magnetization

 Broyden mixing:
  rms(total) = 0.10104E-02    rms(broyden)= 0.10100E-02
  rms(prec ) = 0.11973E-02
  weight for this iteration     100.00

 eigenvalues of (default mixing * dielectric matrix)
  average eigenvalue GAMMA=   1.1453
  2.7619  2.4942  1.7019  1.1377  1.0876  0.9188  0.9188  0.7900  0.7900  0.6240
  0.5738  0.5738  0.5168

 Free energy of the ion-electron system (eV)
  ---------------------------------------------------
  alpha Z        PSCENC =      3563.47650690
  Ewald energy   TEWEN  =    -48577.80539665
  -Hartree energ DENC   =    -18751.45740834
  -exchange      EXHF   =         0.00000000
  -V(xc)+E(xc)   XCENC  =      3313.03279341
  PAW double counting   =     89356.83480758   -89658.35966907
[...]
      7.58456      3.79228      1.99678    -0.02189 -0.02396 -2.89071 ( -0.63482  6.00000)
      7.58456      7.58456      1.99678    -0.00384  0.00031 -2.89508 ( -0.63482  6.00000)
      0.00000      1.89614      0.40437    -0.00293 -0.00033 -2.90692 ( -0.63477  6.00000)
      0.00000      5.68842      0.40437    -0.00136 -0.00097 -2.89868 ( -0.63479  6.00000)
      0.00000      9.48070      0.40437    -0.00135  0.00118 -2.89927 ( -0.63481  6.00000)
      3.79228      1.89614      0.40437    -0.00172 -0.00030 -2.87624 ( -0.63489  6.00000)
      3.79228      5.68842      0.40437    -0.00169 -0.00047 -2.88873 ( -0.63483  6.00000)
      3.79228      9.48070      0.40437    -0.00169  0.00084 -2.88881 ( -0.63485  6.00000)
      7.58456      1.89614      0.40437    -0.01275 -0.00036 -2.87114 ( -0.63467  6.00000)
      7.58456      5.68842      0.40437     0.00278 -0.00574 -2.89564 ( -0.63480  6.00000)
      7.58456      9.48070      0.40437     0.00278  0.00602 -2.89573 ( -0.63483  6.00000)
      1.89614      1.89614      2.80551    -0.00193 -0.00001 -2.89070 ( -0.63477  6.00000)
      1.89614      5.68842      2.80551    -0.00121 -0.00062 -2.89541 ( -0.63482  6.00000)
      1.89614      9.48070      2.80551    -0.00120  0.00062 -2.89547 ( -0.63484  6.00000)
      5.68842      1.89614      2.80551     0.02156  0.00005 -2.76429 ( -0.63546  6.00000)
      5.68842      5.68842      2.80551     0.00120 -0.00018 -2.89930 ( -0.63482  6.00000)
      5.68842      9.48070      2.80551     0.00120  0.00016 -2.89988 ( -0.63483  6.00000)
      9.48070      1.89614      2.80551    -0.02483  0.00001 -2.99627 ( -0.63420  6.00000)
      9.48070      5.68842      2.80551    -0.00009 -0.00123 -2.89250 ( -0.63483  6.00000)
      9.48070      9.48070      2.80551    -0.00001  0.00123 -2.89256 ( -0.63484  6.00000)
 -----------------------------------------------------------------------------------------
    total drift (improves with k-points):  -0.00058  0.00003 -0.07280




--------------------------------------------------------------------------------------------------------




 MACROSCOPIC STATIC DIELECTRIC TENSOR (including local field effects in DFT)
 ------------------------------------------------------
           6.950200     0.000016    -0.033684
           0.000017     6.955777    -0.000001
          -0.033684    -0.000004     6.367751
 ------------------------------------------------------



--------------------------------------------------------------------------------------------------------




--------------------------------------------------------------------------------------------------------




 MACROSCOPIC STATIC DIELECTRIC TENSOR (including local field effects in DFT)
 ------------------------------------------------------
           6.950200     0.000016    -0.033684
           0.000017     6.955777    -0.000001
          -0.033684    -0.000004     6.367751
 ------------------------------------------------------


 PIEZOELECTRIC TENSOR (including local field effects)  for field in x, y, z        (e  Angst)
          XX          YY          ZZ          XY          YZ          ZX
  --------------------------------------------------------------------------------
  x     0.20901     1.16762     1.78534     0.00089     0.00029    -0.22850
  y     0.00002     0.00006     0.00116    -0.24001     0.15880     0.00069
  z    -0.14932    -0.24105    -0.04345    -0.00009     0.00031    -0.33703

 PIEZOELECTRIC TENSOR (including local field effects)  for field in x, y, z        (C/m^2)
          XX          YY          ZZ          XY          YZ          ZX
  --------------------------------------------------------------------------------
  x     0.00269     0.01505     0.02301     0.00001     0.00000    -0.00294
  y     0.00000     0.00000     0.00001    -0.00309     0.00205     0.00001
  z    -0.00192    -0.00311    -0.00056    -0.00000     0.00000    -0.00434

 BORN EFFECTIVE CHARGES (including local field effects) (in |e|, cummulative output)
 ---------------------------------------------------------------------------------
 ion    1
    1     6.58484     0.00014     0.07936
    2     0.00008     6.65703    -0.00028
    3    -0.34741    -0.00018     5.78678
 ion    2
    1     6.64769     0.00145     0.01960
    2     0.01327     6.65623     0.00006
    3    -0.01569     0.00238     5.78620
 ion    3
    1     6.64794    -0.00146     0.02002
    2    -0.01329     6.65757     0.00021
    3    -0.01530    -0.00223     5.78687
 ion    4
    1     6.83132    -0.00005    -0.22097
    2    -0.00002     6.41805     0.00000
    3    -0.54793     0.00026     5.62428
 ion    5
    1     6.65131    -0.01631     0.00926
    2    -0.00034     6.55016     0.02430
    3     0.00668    -0.04778     5.77783
 ion    6
    1     6.65425     0.01641     0.00928
    2     0.00037     6.55424    -0.02442
    3     0.00668     0.04758     5.77787
 ion    7
    1     6.13769     0.00004    -0.17606
    2    -0.00006     6.76499    -0.00027
    3    -0.53613    -0.00016     5.88829
 ion    8
    1     6.66341    -0.05781     0.03049
    2    -0.00254     6.71886    -0.01528
    3     0.00329     0.02875     5.80003
 ion    9
    1     6.66365     0.05795     0.03012
    2     0.00268     6.72021     0.01556
    3     0.00286    -0.02861     5.80074
 ion   10
    1     6.64799     0.00425    -0.01928
    2    -0.00760     6.66287     0.00418
    3     0.01793    -0.00135     5.79058
 ion   11
    1     6.64821    -0.00431    -0.01974
    2     0.00752     6.66422    -0.00448
    3     0.01743     0.00112     5.79127
 ion   12
    1     6.65525     0.00006    -0.01424
    2     0.00007     6.66033     0.00028
    3     0.00438     0.00017     5.78779
 ion   13
    1     6.63192     0.02196    -0.01981
    2     0.00544     6.76634     0.15315
    3    -0.00505     0.05129     5.80168
 ion   14
    1     6.63485    -0.02199    -0.01984
    2    -0.00551     6.77056    -0.15308
    3    -0.00510    -0.05103     5.80175
 ion   15
    1     6.66126    -0.00002    -0.00354
    2     0.00004     6.64828    -0.00012
    3    -0.00053    -0.00021     5.77016
 ion   16
    1     6.67852     0.03495    -0.06856
    2     0.00694     6.57446    -0.11511
    3    -0.01218    -0.03013     5.74851
 ion   17
    1     6.67881    -0.03485    -0.06824
    2    -0.00688     6.57572     0.11479
    3    -0.01173     0.02993     5.74918
 ion   18
    1     6.65938    -0.00004    -0.01599
    2    -0.00005     6.66483     0.00027
    3    -0.00190     0.00018     5.79611
 ion   19
    1     6.65156    -0.00233     0.01681
    2    -0.00287     6.63989     0.01653
    3    -0.00473     0.01011     5.78836
 ion   20
    1     6.65450     0.00240     0.01679
    2     0.00291     6.64400    -0.01664
    3    -0.00478    -0.01022     5.78839
 ion   21
    1     6.65691     0.00001     0.00705
    2     0.00002     6.66024     0.00011
    3    -0.00142     0.00027     5.78814
 ion   22
    1     6.66451    -0.00746     0.01333
    2    -0.00562     6.67916    -0.01624
    3     0.00043    -0.01292     5.77907
 ion   23
    1     6.66479     0.00759     0.01297
    2     0.00574     6.68046     0.01653
    3     0.00004     0.01310     5.77974
 ion   24
    1     6.66279    -0.00002     0.00402
    2    -0.00006     6.65951    -0.00027
    3     0.00006    -0.00021     5.78545
 ion   25
    1     6.67360    -0.06703    -0.13736
    2     0.00879     6.64071     0.01402
    3     0.00510    -0.00274     5.77228
 ion   26
    1     6.67381     0.06694    -0.13699
    2    -0.00887     6.64203    -0.01376
    3     0.00551     0.00298     5.77296
 ion   27
    1     6.66631     0.00008    -0.04493
    2     0.00009     6.65764    -0.00030
    3     0.00113    -0.00016     5.78701
 ion   28
    1     6.55288    -0.00001    -0.10039
    2     0.00005     6.66709    -0.00005
    3    -0.01651    -0.00025     5.81191
 ion   29
    1     6.65029    -0.00358    -0.01657
    2     0.00180     6.66708     0.00034
    3    -0.00150    -0.01738     5.78045
 ion   30
    1     6.65326     0.00357    -0.01659
    2    -0.00177     6.67122    -0.00010
    3    -0.00156     0.01765     5.78050
 ion   31
    1     6.74901    -0.00001    -0.15747
    2    -0.00003     6.64956     0.00026
    3    -0.06513     0.00017     5.75568
 ion   32
    1     6.66344     0.00317    -0.01900
    2     0.00291     6.64667     0.00258
    3    -0.00334     0.02453     5.79969
 ion   33
    1     6.66370    -0.00311    -0.01859
    2    -0.00285     6.64796    -0.00288
    3    -0.00293    -0.02471     5.80038
 ion   34
    1     6.77000     0.00003    -0.51372
    2     0.00011     6.69474     0.00028
    3     0.03661     0.00019     5.72734
 ion   35
    1     6.67010     0.07775     0.07282
    2    -0.00517     6.66554     0.00356
    3     0.00532     0.00505     5.79537
 ion   36
    1     6.67034    -0.07786     0.07244
    2     0.00512     6.66682    -0.00387
    3     0.00488    -0.00518     5.79603
 ion   37
    1    -5.45968    -0.00001     0.09836
    2    -0.00002    -1.09562    -0.00002
    3     0.26633    -0.00003    -2.88940
 ion   38
    1    -5.52854    -0.00140     0.01172
    2     0.00246    -1.13286     0.00378
    3     0.00593     0.00179    -2.88543
 ion   39
    1    -5.52885     0.00147     0.01173
    2    -0.00248    -1.13412    -0.00375
    3     0.00599    -0.00177    -2.88600
 ion   40
    1    -5.45159     0.00012     0.15529
    2     0.00007    -1.14266     0.00002
    3     0.28857     0.00002    -2.90297
 ion   41
    1    -5.52715    -0.00591     0.01497
    2    -0.00320    -1.10703    -0.00685
    3    -0.00191    -0.00124    -2.90693
 ion   42
    1    -5.52728     0.00579     0.01493
    2     0.00311    -1.10819     0.00685
    3    -0.00191     0.00124    -2.90697
 ion   43
    1    -5.47763    -0.00013     0.60123
    2    -0.00002    -1.11407    -0.00003
    3     0.86518     0.00000    -2.84286
 ion   44
    1    -5.54068     0.00691    -0.06210
    2     0.00072    -1.11987    -0.00225
    3     0.00171     0.00112    -2.89831
 ion   45
    1    -5.54089    -0.00679    -0.06213
    2    -0.00066    -1.12109     0.00226
    3     0.00175    -0.00115    -2.89839
 ion   46
    1    -1.12040    -0.00008     0.01360
    2    -0.00012    -5.54220     0.00011
    3     0.01287     0.00034    -2.89695
 ion   47
    1    -1.12220     0.00476     0.00263
    2    -0.00263    -5.53756     0.00020
    3     0.00089    -0.00154    -2.89385
 ion   48
    1    -1.12221    -0.00472     0.00263
    2     0.00274    -5.53644    -0.00031
    3     0.00094     0.00126    -2.89390
 ion   49
    1    -1.12487    -0.00004     0.05957
    2    -0.00001    -5.71720    -0.00001
    3     0.01053     0.00022    -2.82358
 ion   50
    1    -1.13098     0.00554     0.00201
    2     0.00099    -5.52108     0.00661
    3    -0.00107    -0.02052    -2.87468
 ion   51
    1    -1.13114    -0.00550     0.00203
    2    -0.00103    -5.52016    -0.00663
    3    -0.00106     0.02020    -2.87528
 ion   52
    1    -1.11079     0.00006     0.08194
    2     0.00010    -5.39308     0.00012
    3     0.01880     0.00038    -2.92253
 ion   53
    1    -1.11612     0.01717     0.00813
    2     0.00084    -5.54585    -0.00065
    3    -0.00011     0.02304    -2.90869
 ion   54
    1    -1.11614    -0.01732     0.00813
    2    -0.00102    -5.54481     0.00057
    3    -0.00016    -0.02333    -2.90878
 ion   55
    1    -1.11689    -0.01568    -0.00947
    2     0.01094    -5.53509    -0.00379
    3     0.01221     0.00626    -2.89680
 ion   56
    1    -1.11693     0.01574    -0.00948
    2    -0.01078    -5.53404     0.00385
    3     0.01220    -0.00593    -2.89692
 ion   57
    1    -1.12158    -0.00008    -0.00145
    2    -0.00011    -5.53490    -0.00008
    3    -0.00100    -0.00030    -2.89380
 ion   58
    1    -1.10772    -0.07891     0.00245
    2     0.03122    -5.37125    -0.15609
    3    -0.00290    -0.02576    -2.93192
 ion   59
    1    -1.10789     0.07888     0.00248
    2    -0.03113    -5.37023     0.15631
    3    -0.00287     0.02607    -2.93251
 ion   60
    1    -1.13212    -0.00004     0.00344
    2    -0.00001    -5.51058    -0.00005
    3     0.00152    -0.00030    -2.87910
 ion   61
    1    -1.10728    -0.15243     0.03567
    2     0.02764    -5.62231     0.11886
    3     0.00840    -0.00870    -2.84967
 ion   62
    1    -1.10730     0.15230     0.03564
    2    -0.02781    -5.62126    -0.11876
    3     0.00837     0.00899    -2.84977
 ion   63
    1    -1.11394     0.00009     0.00616
    2     0.00014    -5.54525    -0.00008
    3     0.00117    -0.00031    -2.90611
 ion   64
    1    -5.52842    -0.00013    -0.01173
    2    -0.00155    -1.11892     0.00381
    3     0.00187     0.00626    -2.88940
 ion   65
    1    -5.52871     0.00012    -0.01169
    2     0.00149    -1.12014    -0.00387
    3     0.00194    -0.00637    -2.88999
 ion   66
    1    -5.53401    -0.00003    -0.00499
    2     0.00000    -1.12639     0.00002
    3     0.00044     0.00001    -2.89105
 ion   67
    1    -5.52738     0.00223    -0.01512
    2     0.00096    -1.12685    -0.00557
    3    -0.00531    -0.00815    -2.89483
 ion   68
    1    -5.52750    -0.00239    -0.01509
    2    -0.00100    -1.12797     0.00559
    3    -0.00524     0.00810    -2.89486
 ion   69
    1    -5.53308     0.00018    -0.00489
    2     0.00007    -1.11911    -0.00001
    3    -0.00137     0.00001    -2.89591
 ion   70
    1    -5.53842    -0.00679     0.07973
    2     0.00064    -1.12201    -0.00199
    3     0.00311    -0.00096    -2.88720
 ion   71
    1    -5.53854     0.00694     0.07984
    2    -0.00057    -1.12317     0.00197
    3     0.00309     0.00092    -2.88728
 ion   72
    1    -5.53967    -0.00015     0.02952
    2    -0.00009    -1.12251    -0.00000
    3     0.00094    -0.00001    -2.89244
 ion   73
    1    -5.53157     0.00152     0.02056
    2    -0.00016    -1.12242    -0.00025
    3     0.01610     0.00041    -2.89314
 ion   74
    1    -5.53177    -0.00138     0.02058
    2     0.00019    -1.12360     0.00023
    3     0.01618    -0.00041    -2.89318
 ion   75
    1    -5.53404    -0.00017     0.01111
    2    -0.00007    -1.12331    -0.00001
    3     0.00627     0.00003    -2.89340
 ion   76
    1    -5.54624     0.00266     0.00811
    2     0.00228    -1.12729    -0.01255
    3    -0.00830     0.00112    -2.89344
 ion   77
    1    -5.54659    -0.00265     0.00811
    2    -0.00229    -1.12851     0.01261
    3    -0.00831    -0.00109    -2.89399
 ion   78
    1    -5.54179    -0.00003     0.00156
    2    -0.00004    -1.12152    -0.00004
    3    -0.00262    -0.00006    -2.89222
 ion   79
    1    -5.54118     0.00283     0.02338
    2    -0.00198    -1.11728     0.00769
    3    -0.00920    -0.00219    -2.88341
 ion   80
    1    -5.54127    -0.00299     0.02340
    2     0.00191    -1.11840    -0.00763
    3    -0.00920     0.00222    -2.88345
 ion   81
    1    -5.53904     0.00017     0.00710
    2     0.00007    -1.12535     0.00001
    3    -0.00350     0.00000    -2.89128
 ion   82
    1    -1.11484    -0.01715     0.00111
    2     0.00612    -5.54826    -0.01859
    3     0.00944    -0.01716    -2.89666
 ion   83
    1    -1.11500     0.01716     0.00116
    2    -0.00611    -5.54731     0.01843
    3     0.00947     0.01688    -2.89727
 ion   84
    1    -1.11803    -0.00002     0.00063
    2    -0.00002    -5.54032    -0.00001
    3     0.00217     0.00025    -2.89698
 ion   85
    1    -1.12899    -0.00513     0.00523
    2     0.00573    -5.52542     0.02030
    3     0.01152     0.02747    -2.88571
 ion   86
    1    -1.12902     0.00500     0.00521
    2    -0.00585    -5.52437    -0.02038
    3     0.01146    -0.02779    -2.88582
 ion   87
    1    -1.12765     0.00010     0.00195
    2     0.00014    -5.53075     0.00012
    3     0.00198     0.00032    -2.88988
 ion   88
    1    -1.12647     0.15130     0.05154
    2    -0.00891    -5.55192    -0.01784
    3    -0.02192     0.02363    -2.88995
 ion   89
    1    -1.12651    -0.15118     0.05154
    2     0.00903    -5.55089     0.01776
    3    -0.02189    -0.02396    -2.89004
 ion   90
    1    -1.12318    -0.00009     0.00536
    2    -0.00012    -5.53747     0.00011
    3    -0.00384     0.00031    -2.89441
 ion   91
    1    -1.11569    -0.00003     0.00498
    2    -0.00002    -5.50952    -0.00005
    3    -0.00293    -0.00033    -2.90625
 ion   92
    1    -1.11853     0.00212    -0.00157
    2    -0.00089    -5.53747    -0.00206
    3    -0.00135    -0.00097    -2.89800
 ion   93
    1    -1.11869    -0.00213    -0.00155
    2     0.00088    -5.53651     0.00204
    3    -0.00134     0.00118    -2.89859
 ion   94
    1    -1.13065     0.00006     0.01633
    2     0.00010    -5.56885    -0.00009
    3    -0.00172    -0.00030    -2.87557
 ion   95
    1    -1.12729    -0.00108     0.00012
    2    -0.00091    -5.53679     0.00148
    3    -0.00168    -0.00047    -2.88805
 ion   96
    1    -1.12733     0.00094     0.00004
    2     0.00079    -5.53570    -0.00134
    3    -0.00168     0.00084    -2.88814
 ion   97
    1    -1.11540    -0.00003     0.16253
    2    -0.00011    -5.50860    -0.00009
    3    -0.01275    -0.00036    -2.87046
 ion   98
    1    -1.12337    -0.02783     0.01008
    2     0.00182    -5.53531    -0.00103
    3     0.00279    -0.00574    -2.89497
 ion   99
    1    -1.12339     0.02791     0.01011
    2    -0.00171    -5.53422     0.00119
    3     0.00278     0.00602    -2.89506
 ion  100
    1    -5.51345    -0.00016    -0.01209
    2    -0.00009    -1.12353    -0.00001
    3    -0.00193    -0.00001    -2.89002
 ion  101
    1    -5.53094    -0.00332    -0.01559
    2    -0.00014    -1.12210    -0.00024
    3    -0.00120    -0.00062    -2.89474
 ion  102
    1    -5.53112     0.00345    -0.01558
    2     0.00020    -1.12325     0.00027
    3    -0.00119     0.00062    -2.89479
 ion  103
    1    -5.54384    -0.00003    -0.02071
    2    -0.00004    -1.13663     0.00003
    3     0.02156     0.00005    -2.76361
 ion  104
    1    -5.54367    -0.00538    -0.00328
    2    -0.00079    -1.11700    -0.00169
    3     0.00121    -0.00018    -2.89863
 ion  105
    1    -5.54405     0.00538    -0.00329
    2     0.00078    -1.11822     0.00166
    3     0.00120     0.00016    -2.89920
 ion  106
    1    -5.53544     0.00014    -0.11178
    2     0.00003    -1.11287     0.00001
    3    -0.02482     0.00001    -2.99560
 ion  107
    1    -5.53970    -0.00444    -0.01428
    2     0.00084    -1.12863    -0.00210
    3    -0.00008    -0.00123    -2.89183
 ion  108
    1    -5.53984     0.00424    -0.01426
    2    -0.00093    -1.12979     0.00209
    3    -0.00001     0.00123    -2.89189


--------------------------------------------------------------------------------------------------------


     LOOP+:  cpu time   1692.4681: real time   1748.5176
    4ORBIT:  cpu time      0.0000: real time      0.0000

 total amount of memory used by VASP MPI-rank0   266725. kBytes
=======================================================================

   base      :      30000. kBytes
   nonlr-proj:      19556. kBytes
   fftplans  :      10927. kBytes
   grid      :      23181. kBytes
   one-center:       1679. kBytes
   wavefun   :     181382. kBytes



 General timing and accounting informations for this job:
 ========================================================

                  Total CPU time used (sec):     1702.222
                            User time (sec):     1647.375
                          System time (sec):       54.847
                         Elapsed time (sec):     1767.548

                   Maximum memory used (kb):     1089892.
                   Average memory used (kb):          N/A

                          Minor page faults:      2558520
                          Major page faults:           13
                 Voluntary context switches:       101190
