 vasp.6.3.0 20Jan22 (build Mar 29 2022 16:24:06) complex

 executed on             Bridges2 date 2023.01.12  19:12:39
 running on   32 total cores
 distrk:  each k-point on    4 cores,    8 groups
 distr:  one band on NCORE=   1 cores,    4 groups


--------------------------------------------------------------------------------------------------------


 INCAR:
   ICHARG = 2
   LWAVE = .FALSE.
   LCHARG = .FALSE.
   LVTOT = .FALSE.
   NCORE = 1
   KPAR = 8
   EDIFF = 1E-7
   NELM = 80
   PREC = Normal
   LREAL = Auto
   NELMIN = 4
   ENCUT = 400.0 eV
   ISPIN = 1
   ISMEAR = 0
   SIGMA = 0.10
   NSW = 0
   LEPSILON = .TRUE.
   LPEAD = .TRUE.
   ISYM = 0

 POTCAR:    PAW_PBE Ti_pv 07Sep2000
 POTCAR:    PAW_PBE O 08Apr2002
 -----------------------------------------------------------------------------
|                                                                             |
|           W    W    AA    RRRRR   N    N  II  N    N   GGGG   !!!           |
|           W    W   A  A   R    R  NN   N  II  NN   N  G    G  !!!           |
|           W    W  A    A  R    R  N N  N  II  N N  N  G       !!!           |
|           W WW W  AAAAAA  RRRRR   N  N N  II  N  N N  G  GGG   !            |
|           WW  WW  A    A  R   R   N   NN  II  N   NN  G    G                |
|           W    W  A    A  R    R  N    N  II  N    N   GGGG   !!!           |
|                                                                             |
|     For optimal performance we recommend to set                             |
|       NCORE = 2 up to number-of-cores-per-socket                            |
|     NCORE specifies how many cores store one orbital (NPAR=cpu/NCORE).      |
|     This setting can greatly improve the performance of VASP for DFT.       |
|     The default, NCORE=1 might be grossly inefficient on modern             |
|     multi-core architectures or massively parallel machines. Do your        |
|     own testing! More info at https://www.vasp.at/wiki/index.php/NCORE      |
|     Unfortunately you need to use the default for GW and RPA                |
|     calculations (for HF NCORE is supported but not extensively tested      |
|     yet).                                                                   |
|                                                                             |
 -----------------------------------------------------------------------------

 POTCAR:    PAW_PBE Ti_pv 07Sep2000
   VRHFIN =Ti: d3 s1
   LEXCH  = PE
   EATOM  =  1042.5995 eV,   76.6289 Ry

   TITEL  = PAW_PBE Ti_pv 07Sep2000
   LULTRA =        F    use ultrasoft PP ?
   IUNSCR =        1    unscreen: 0-lin 1-nonlin 2-no
   RPACOR =    2.200    partial core radius
   POMASS =   47.880; ZVAL   =   10.000    mass and valenz
   RCORE  =    2.500    outmost cutoff radius
   RWIGS  =    2.500; RWIGS  =    1.323    wigner-seitz radius (au A)
   ENMAX  =  222.335; ENMIN  =  166.751 eV
   RCLOC  =    1.701    cutoff for local pot
   LCOR   =        T    correct aug charges
   LPAW   =        T    paw PP
   EAUG   =  482.848
   DEXC   =    0.000
   RMAX   =    2.564    core radius for proj-oper
   RAUG   =    1.300    factor for augmentation sphere
   RDEP   =    2.538    radius for radial grids
   RDEPT  =    1.952    core radius for aug-charge

   Atomic configuration
    8 entries
     n  l   j            E        occ.
     1  0  0.50     -4865.3608   2.0000
     2  0  0.50      -533.1368   2.0000
     2  1  1.50      -440.5031   6.0000
     3  0  0.50       -59.3186   2.0000
     3  1  1.50       -35.7012   6.0000
     3  2  2.50        -1.9157   3.0000
     4  0  0.50        -3.7291   1.0000
     4  3  2.50        -1.3606   0.0000
   Description
     l       E           TYP  RCUT    TYP  RCUT
     1    -35.7012140     23  2.300
     1     -1.3605826     23  2.300
     2     -1.9156996     23  2.500
     2     -0.4063033     23  2.500
     0     -3.7290856     23  2.500
     0     20.4087390     23  2.500
  local pseudopotential read in
  partial core-charges read in
  partial kinetic energy density read in
  atomic valenz-charges read in
  non local Contribution for L=           1  read in
    real space projection operators read in
  non local Contribution for L=           1  read in
    real space projection operators read in
  non local Contribution for L=           2  read in
    real space projection operators read in
  non local Contribution for L=           2  read in
    real space projection operators read in
  non local Contribution for L=           0  read in
    real space projection operators read in
  non local Contribution for L=           0  read in
    real space projection operators read in
    PAW grid and wavefunctions read in

   number of l-projection  operators is LMAX  =           6
   number of lm-projection operators is LMMAX =          18

 POTCAR:    PAW_PBE O 08Apr2002
   VRHFIN =O: s2p4
   LEXCH  = PE
   EATOM  =   432.3788 eV,   31.7789 Ry

   TITEL  = PAW_PBE O 08Apr2002
   LULTRA =        F    use ultrasoft PP ?
   IUNSCR =        1    unscreen: 0-lin 1-nonlin 2-no
   RPACOR =    1.200    partial core radius
   POMASS =   16.000; ZVAL   =    6.000    mass and valenz
   RCORE  =    1.520    outmost cutoff radius
   RWIGS  =    1.550; RWIGS  =    0.820    wigner-seitz radius (au A)
   ENMAX  =  400.000; ENMIN  =  300.000 eV
   ICORE  =        2    local potential
   LCOR   =        T    correct aug charges
   LPAW   =        T    paw PP
   EAUG   =  605.392
   DEXC   =    0.000
   RMAX   =    1.553    core radius for proj-oper
   RAUG   =    1.300    factor for augmentation sphere
   RDEP   =    1.550    radius for radial grids
   RDEPT  =    1.329    core radius for aug-charge

   Atomic configuration
    4 entries
     n  l   j            E        occ.
     1  0  0.50      -514.6923   2.0000
     2  0  0.50       -23.9615   2.0000
     2  1  0.50        -9.0305   4.0000
     3  2  1.50        -9.5241   0.0000
   Description
     l       E           TYP  RCUT    TYP  RCUT
     0    -23.9615318     23  1.200
     0     -9.5240782     23  1.200
     1     -9.0304911     23  1.520
     1      8.1634956     23  1.520
     2     -9.5240782      7  1.500
  local pseudopotential read in
  partial core-charges read in
  partial kinetic energy density read in
  kinetic energy density of atom read in
  atomic valenz-charges read in
  non local Contribution for L=           0  read in
    real space projection operators read in
  non local Contribution for L=           0  read in
    real space projection operators read in
  non local Contribution for L=           1  read in
    real space projection operators read in
  non local Contribution for L=           1  read in
    real space projection operators read in
    PAW grid and wavefunctions read in

   number of l-projection  operators is LMAX  =           4
   number of lm-projection operators is LMMAX =           8

 Optimization of the real space projectors (new method)

 maximal supplied QI-value         = 15.12
 optimisation between [QCUT,QGAM] = [ 10.13, 20.41] = [ 28.73,116.64] Ry
 Optimized for a Real-space Cutoff    1.51 Angstroem

   l    n(q)    QCUT    max X(q) W(low)/X(q) W(high)/X(q)  e(spline)
   1      9    10.129     4.216    0.12E-04    0.72E-04    0.60E-07
   1      9    10.129     5.422    0.84E-04    0.21E-03    0.15E-06
   2      8    10.129    72.084    0.33E-03    0.35E-04    0.17E-06
   2      8    10.129    65.965    0.33E-03    0.37E-04    0.17E-06
   0      9    10.129    41.531    0.17E-03    0.19E-03    0.81E-07
   0      9    10.129    16.290    0.12E-03    0.14E-03    0.64E-07
 Optimization of the real space projectors (new method)

 maximal supplied QI-value         = 24.76
 optimisation between [QCUT,QGAM] = [ 10.15, 20.30] = [ 28.85,115.39] Ry
 Optimized for a Real-space Cutoff    1.38 Angstroem

   l    n(q)    QCUT    max X(q) W(low)/X(q) W(high)/X(q)  e(spline)
   0      8    10.150    20.381    0.22E-03    0.32E-03    0.29E-06
   0      8    10.150    15.268    0.23E-03    0.35E-03    0.30E-06
   1      8    10.150     5.964    0.46E-03    0.53E-03    0.21E-06
   1      8    10.150     5.382    0.38E-03    0.45E-03    0.19E-06
  PAW_PBE Ti_pv 07Sep2000               :
 energy of atom  1       EATOM=-1042.5995
 kinetic energy error for atom=    0.0037 (will be added to EATOM!!)
  PAW_PBE O 08Apr2002                   :
 energy of atom  2       EATOM= -432.3788
 kinetic energy error for atom=    0.1156 (will be added to EATOM!!)


 POSCAR: Ti4 O8
  positions in cartesian coordinates
  No initial velocities read in
 exchange correlation table for  LEXCH =        8
   RHO(1)=    0.500       N(1)  =     2000
   RHO(2)=  100.500       N(2)  =     4000



--------------------------------------------------------------------------------------------------------


 ion  position               nearest neighbor table
   1  0.167  0.167  0.500-  56 1.94  55 1.94  40 1.94  37 1.94 100 2.00  46 2.00  31 3.06  28 3.06
                            11 3.06  10 3.06
   2  0.167  0.500  0.500-  56 1.94  41 1.94  38 1.94  57 1.94 101 2.00  47 2.00  11 3.06  32 3.06
                            29 3.06  12 3.06
   3  0.167  0.833  0.500-  57 1.94  42 1.94  39 1.94  55 1.94 102 2.00  48 2.00  12 3.06  33 3.06
                            30 3.06  10 3.06
   4  0.500  0.167  0.500-  40 1.94  59 1.94  58 1.94  43 1.99 103 2.00  49 2.00  31 3.06  14 3.06
                            13 3.06  34 3.06
   5  0.500  0.500  0.500-  59 1.94  41 1.94  60 1.94  44 1.94 104 2.00  50 2.00  32 3.06  14 3.06
                            35 3.06  15 3.06
   6  0.500  0.833  0.500-  60 1.94  42 1.94  58 1.94  45 1.94 105 2.00  51 2.00  15 3.06  33 3.06
                            13 3.06  36 3.06
   7  0.833  0.167  0.500-  62 1.94  61 1.94  37 1.94  43 1.99 106 2.00  52 2.00  34 3.06  17 3.06
                            16 3.06  28 3.06
   8  0.833  0.500  0.500-  44 1.94  62 1.94  63 1.94  38 1.94 107 2.00  53 2.00  35 3.06  17 3.06
                            29 3.06  18 3.06
   9  0.833  0.833  0.500-  63 1.94  45 1.94  61 1.94  39 1.94 108 2.00  54 2.00  36 3.06  18 3.06
                            30 3.06  16 3.06
  10  0.167  0.000  0.750-  67 1.94  64 1.94  46 1.94  48 1.94  73 2.00  55 2.00  22 3.06  19 3.06
                             1 3.06   3 3.06
  11  0.167  0.333  0.750-  47 1.94  46 1.94  68 1.94  65 1.94  74 2.00  56 2.00   2 3.06  23 3.06
                            20 3.06   1 3.06
  12  0.167  0.667  0.750-  48 1.94  69 1.94  66 1.94  47 1.94  75 2.00  57 2.00   3 3.06  24 3.06
                            21 3.06   2 3.06
  13  0.500  0.000  0.750-  67 1.94  49 1.94  51 1.94  70 1.94  76 2.00  58 2.00  22 3.06   4 3.06
                            25 3.06   6 3.06
  14  0.500  0.333  0.750-  50 1.94  68 1.94  49 1.94  71 1.94  77 2.00  59 2.00  23 3.06   5 3.06
                             4 3.06  26 3.06
  15  0.500  0.667  0.750-  51 1.94  69 1.94  50 1.94  72 1.94  78 2.00  60 2.00   6 3.06  24 3.06
                            27 3.06   5 3.06
  16  0.833  0.000  0.750-  70 1.94  52 1.94  64 1.94  54 1.94  79 2.00  61 2.00  25 3.06   7 3.06
                            19 3.06   9 3.06
  17  0.833  0.333  0.750-  71 1.94  53 1.94  52 1.94  65 1.94  80 2.00  62 2.00  26 3.06   8 3.06
                             7 3.06  20 3.06
  18  0.833  0.667  0.750-  54 1.94  72 1.94  66 1.94  53 1.94  81 2.00  63 2.00  27 3.06   9 3.06
                            21 3.06   8 3.06
  19  0.000  0.000  0.000-  73 1.94  91 1.94  79 1.94  93 1.94  82 2.00  64 2.00  10 3.06  28 3.06
                            16 3.06  30 3.06
  20  0.000  0.333  0.000-  92 1.94  74 1.94  91 1.94  80 1.94  83 2.00  65 2.00  29 3.06  11 3.06
                            28 3.06  17 3.06
  21  0.000  0.667  0.000-  93 1.94  75 1.94  81 1.94  92 1.94  84 2.00  66 2.00  30 3.06  12 3.06
                            18 3.06  29 3.06
  22  0.333  0.000  0.000-  76 1.94  73 1.94  94 1.94  96 1.94  85 2.00  67 2.00  13 3.06  10 3.06
                            31 3.06  33 3.06
  23  0.333  0.333  0.000-  77 1.94  95 1.94  74 1.94  94 1.94  86 2.00  68 2.00  14 3.06  32 3.06
                            11 3.06  31 3.06
  24  0.333  0.667  0.000-  96 1.94  78 1.94  75 1.94  95 1.94  87 2.00  69 2.00  33 3.06  15 3.06
                            12 3.06  32 3.06
  25  0.667  0.000  0.000-  79 1.94  97 1.94  76 1.94  99 1.94  88 2.00  70 2.00  16 3.06  34 3.06
                            13 3.06  36 3.06
  26  0.667  0.333  0.000-  80 1.94  98 1.94  97 1.94  77 1.94  89 2.00  71 2.00  17 3.06  35 3.06
                            34 3.06  14 3.06
  27  0.667  0.667  0.000-  81 1.94  99 1.94  78 1.94  98 1.94  90 2.00  72 2.00  18 3.06  36 3.06
                            15 3.06  35 3.06
  28  0.000  0.167  0.250-  83 1.94  82 1.94 100 1.94 106 1.94  37 2.00  91 2.00   1 3.06  20 3.06
                            19 3.06   7 3.06
  29  0.000  0.500  0.250-  83 1.94 101 1.94  84 1.94 107 1.94  38 2.00  92 2.00  20 3.06   2 3.06
                             8 3.06  21 3.06
  30  0.000  0.833  0.250-  84 1.94 102 1.94  82 1.94 108 1.94  39 2.00  93 2.00  21 3.06   3 3.06
                             9 3.06  19 3.06
  31  0.333  0.167  0.250- 103 1.94  86 1.94  85 1.94 100 1.94  40 2.00  94 2.00   4 3.06   1 3.06
                            23 3.06  22 3.06
  32  0.333  0.500  0.250-  86 1.94 104 1.94 101 1.94  87 1.94  41 2.00  95 2.00   5 3.06  23 3.06
                             2 3.06  24 3.06
  33  0.333  0.833  0.250-  87 1.94 105 1.94 102 1.94  85 1.94  42 2.00  96 2.00  24 3.06   6 3.06
                             3 3.06  22 3.06
  34  0.667  0.167  0.250-  43 1.80 106 1.94  89 1.94  88 1.94 103 1.94  97 2.00   7 3.06  26 3.06
                            25 3.06   4 3.06
  35  0.667  0.500  0.250- 107 1.94  89 1.94  90 1.94 104 1.94  44 2.00  98 2.00   8 3.06  26 3.06
                             5 3.06  27 3.06
  36  0.667  0.833  0.250-  90 1.94 108 1.94  88 1.94 105 1.94  45 2.00  99 2.00   9 3.06  27 3.06
                            25 3.06   6 3.06
  37  0.000  0.167  0.458-   1 1.94   7 1.94  28 2.00
  38  0.000  0.500  0.458-   2 1.94   8 1.94  29 2.00
  39  0.000  0.833  0.458-   3 1.94   9 1.94  30 2.00
  40  0.333  0.167  0.458-   4 1.94   1 1.94  31 2.00
  41  0.333  0.500  0.458-   5 1.94   2 1.94  32 2.00
  42  0.333  0.833  0.458-   6 1.94   3 1.94  33 2.00
  43  0.667  0.167  0.437-  34 1.80   7 1.99   4 1.99
  44  0.667  0.500  0.458-   8 1.94   5 1.94  35 2.00
  45  0.667  0.833  0.458-   9 1.94   6 1.94  36 2.00
  46  0.167  0.167  0.708-  11 1.94  10 1.94   1 2.00
  47  0.167  0.500  0.708-  11 1.94  12 1.94   2 2.00
  48  0.167  0.833  0.708-  12 1.94  10 1.94   3 2.00
  49  0.500  0.167  0.708-  14 1.94  13 1.94   4 2.00
  50  0.500  0.500  0.708-  14 1.94  15 1.94   5 2.00
  51  0.500  0.833  0.708-  15 1.94  13 1.94   6 2.00
  52  0.833  0.167  0.708-  17 1.94  16 1.94   7 2.00
  53  0.833  0.500  0.708-  17 1.94  18 1.94   8 2.00
  54  0.833  0.833  0.708-  18 1.94  16 1.94   9 2.00
  55  0.167  0.000  0.542-   1 1.94   3 1.94  10 2.00
  56  0.167  0.333  0.542-   2 1.94   1 1.94  11 2.00
  57  0.167  0.667  0.542-   3 1.94   2 1.94  12 2.00
  58  0.500  0.000  0.542-   4 1.94   6 1.94  13 2.00
  59  0.500  0.333  0.542-   5 1.94   4 1.94  14 2.00
  60  0.500  0.667  0.542-   6 1.94   5 1.94  15 2.00
  61  0.833  0.000  0.542-   7 1.94   9 1.94  16 2.00
  62  0.833  0.333  0.542-   8 1.94   7 1.94  17 2.00
  63  0.833  0.667  0.542-   9 1.94   8 1.94  18 2.00
  64  0.000  0.000  0.792-  10 1.94  16 1.94  19 2.00
  65  0.000  0.333  0.792-  11 1.94  17 1.94  20 2.00
  66  0.000  0.667  0.792-  12 1.94  18 1.94  21 2.00
  67  0.333  0.000  0.792-  13 1.94  10 1.94  22 2.00
  68  0.333  0.333  0.792-  14 1.94  11 1.94  23 2.00
  69  0.333  0.667  0.792-  15 1.94  12 1.94  24 2.00
  70  0.667  0.000  0.792-  16 1.94  13 1.94  25 2.00
  71  0.667  0.333  0.792-  17 1.94  14 1.94  26 2.00
  72  0.667  0.667  0.792-  18 1.94  15 1.94  27 2.00
  73  0.167  0.000  0.958-  22 1.94  19 1.94  10 2.00
  74  0.167  0.333  0.958-  23 1.94  20 1.94  11 2.00
  75  0.167  0.667  0.958-  24 1.94  21 1.94  12 2.00
  76  0.500  0.000  0.958-  22 1.94  25 1.94  13 2.00
  77  0.500  0.333  0.958-  23 1.94  26 1.94  14 2.00
  78  0.500  0.667  0.958-  24 1.94  27 1.94  15 2.00
  79  0.833  0.000  0.958-  25 1.94  19 1.94  16 2.00
  80  0.833  0.333  0.958-  26 1.94  20 1.94  17 2.00
  81  0.833  0.667  0.958-  27 1.94  21 1.94  18 2.00
  82  0.000  0.000  0.208-  28 1.94  30 1.94  19 2.00
  83  0.000  0.333  0.208-  29 1.94  28 1.94  20 2.00
  84  0.000  0.667  0.208-  30 1.94  29 1.94  21 2.00
  85  0.333  0.000  0.208-  31 1.94  33 1.94  22 2.00
  86  0.333  0.333  0.208-  32 1.94  31 1.94  23 2.00
  87  0.333  0.667  0.208-  33 1.94  32 1.94  24 2.00
  88  0.667  0.000  0.208-  34 1.94  36 1.94  25 2.00
  89  0.667  0.333  0.208-  35 1.94  34 1.94  26 2.00
  90  0.667  0.667  0.208-  36 1.94  35 1.94  27 2.00
  91  0.000  0.167  0.042-  20 1.94  19 1.94  28 2.00
  92  0.000  0.500  0.042-  20 1.94  21 1.94  29 2.00
  93  0.000  0.833  0.042-  21 1.94  19 1.94  30 2.00
  94  0.333  0.167  0.042-  23 1.94  22 1.94  31 2.00
  95  0.333  0.500  0.042-  23 1.94  24 1.94  32 2.00
  96  0.333  0.833  0.042-  24 1.94  22 1.94  33 2.00
  97  0.667  0.167  0.042-  26 1.94  25 1.94  34 2.00
  98  0.667  0.500  0.042-  26 1.94  27 1.94  35 2.00
  99  0.667  0.833  0.042-  27 1.94  25 1.94  36 2.00
 100  0.167  0.167  0.292-  31 1.94  28 1.94   1 2.00
 101  0.167  0.500  0.292-  32 1.94  29 1.94   2 2.00
 102  0.167  0.833  0.292-  33 1.94  30 1.94   3 2.00
 103  0.500  0.167  0.292-  31 1.94  34 1.94   4 2.00
 104  0.500  0.500  0.292-  32 1.94  35 1.94   5 2.00
 105  0.500  0.833  0.292-  33 1.94  36 1.94   6 2.00
 106  0.833  0.167  0.292-  34 1.94  28 1.94   7 2.00
 107  0.833  0.500  0.292-  35 1.94  29 1.94   8 2.00
 108  0.833  0.833  0.292-  36 1.94  30 1.94   9 2.00


IMPORTANT INFORMATION: All symmetrisations will be switched off!
NOSYMM: (Re-)initialisation of all symmetry stuff for point group C_1.


----------------------------------------------------------------------------------------

                                     Primitive cell

  volume of cell :    1243.1447

  direct lattice vectors                    reciprocal lattice vectors
    11.376843452  0.000000000  0.000000000     0.087897843  0.000000000  0.000000000
     0.000000000 11.376843452  0.000000000     0.000000000  0.087897843  0.000000000
     0.000000000  0.000000000  9.604574204     0.000000000  0.000000000  0.104117057

  length of vectors
    11.376843452 11.376843452  9.604574204     0.087897843  0.087897843  0.104117057

  position of ions in fractional coordinates (direct lattice)
     0.166666672  0.166666672  0.500000000
     0.166666672  0.500000000  0.500000000
     0.166666672  0.833333313  0.500000000
     0.500000000  0.166666672  0.500000000
     0.500000000  0.500000000  0.500000000
     0.500000000  0.833333313  0.500000000
     0.833333313  0.166666672  0.500000000
     0.833333313  0.500000000  0.500000000
     0.833333313  0.833333313  0.500000000
     0.166666672  0.000000000  0.750000000
     0.166666672  0.333333343  0.750000000
     0.166666672  0.666666687  0.750000000
     0.500000000  0.000000000  0.750000000
     0.500000000  0.333333343  0.750000000
     0.500000000  0.666666687  0.750000000
     0.833333313  0.000000000  0.750000000
     0.833333313  0.333333343  0.750000000
     0.833333313  0.666666687  0.750000000
     0.000000000  0.000000000  0.000000000
     0.000000000  0.333333343  0.000000000
     0.000000000  0.666666687  0.000000000
     0.333333343  0.000000000  0.000000000
     0.333333343  0.333333343  0.000000000
     0.333333343  0.666666687  0.000000000
     0.666666687  0.000000000  0.000000000
     0.666666687  0.333333343  0.000000000
     0.666666687  0.666666687  0.000000000
     0.000000000  0.166666672  0.250000000
     0.000000000  0.500000000  0.250000000
     0.000000000  0.833333313  0.250000000
     0.333333343  0.166666672  0.250000000
     0.333333343  0.500000000  0.250000000
     0.333333343  0.833333313  0.250000000
     0.666666687  0.166666672  0.250000000
     0.666666687  0.500000000  0.250000000
     0.666666687  0.833333313  0.250000000
     0.000000000  0.166666672  0.457898587
     0.000000000  0.500000000  0.457898587
     0.000000000  0.833333313  0.457898587
     0.333333343  0.166666672  0.457898587
     0.333333343  0.500000000  0.457898587
     0.333333343  0.833333313  0.457898587
     0.666666687  0.166666672  0.437075176
     0.666666687  0.500000000  0.457898587
     0.666666687  0.833333313  0.457898587
     0.166666672  0.166666672  0.707898617
     0.166666672  0.500000000  0.707898617
     0.166666672  0.833333313  0.707898617
     0.500000000  0.166666672  0.707898617
     0.500000000  0.500000000  0.707898617
     0.500000000  0.833333313  0.707898617
     0.833333313  0.166666672  0.707898617
     0.833333313  0.500000000  0.707898617
     0.833333313  0.833333313  0.707898617
     0.166666672  0.000000000  0.542101383
     0.166666672  0.333333343  0.542101383
     0.166666672  0.666666687  0.542101383
     0.500000000  0.000000000  0.542101383
     0.500000000  0.333333343  0.542101383
     0.500000000  0.666666687  0.542101383
     0.833333313  0.000000000  0.542101383
     0.833333313  0.333333343  0.542101383
     0.833333313  0.666666687  0.542101383
     0.000000000  0.000000000  0.792101383
     0.000000000  0.333333343  0.792101383
     0.000000000  0.666666687  0.792101383
     0.333333343  0.000000000  0.792101383
     0.333333343  0.333333343  0.792101383
     0.333333343  0.666666687  0.792101383
     0.666666687  0.000000000  0.792101383
     0.666666687  0.333333343  0.792101383
     0.666666687  0.666666687  0.792101383
     0.166666672  0.000000000  0.957898617
     0.166666672  0.333333343  0.957898617
     0.166666672  0.666666687  0.957898617
     0.500000000  0.000000000  0.957898617
     0.500000000  0.333333343  0.957898617
     0.500000000  0.666666687  0.957898617
     0.833333313  0.000000000  0.957898617
     0.833333313  0.333333343  0.957898617
     0.833333313  0.666666687  0.957898617
     0.000000000  0.000000000  0.207898602
     0.000000000  0.333333343  0.207898602
     0.000000000  0.666666687  0.207898602
     0.333333343  0.000000000  0.207898602
     0.333333343  0.333333343  0.207898602
     0.333333343  0.666666687  0.207898602
     0.666666687  0.000000000  0.207898602
     0.666666687  0.333333343  0.207898602
     0.666666687  0.666666687  0.207898602
     0.000000000  0.166666672  0.042101406
     0.000000000  0.500000000  0.042101406
     0.000000000  0.833333313  0.042101406
     0.333333343  0.166666672  0.042101406
     0.333333343  0.500000000  0.042101406
     0.333333343  0.833333313  0.042101406
     0.666666687  0.166666672  0.042101406
     0.666666687  0.500000000  0.042101406
     0.666666687  0.833333313  0.042101406
     0.166666672  0.166666672  0.292101413
     0.166666672  0.500000000  0.292101413
     0.166666672  0.833333313  0.292101413
     0.500000000  0.166666672  0.292101413
     0.500000000  0.500000000  0.292101413
     0.500000000  0.833333313  0.292101413
     0.833333313  0.166666672  0.292101413
     0.833333313  0.500000000  0.292101413
     0.833333313  0.833333313  0.292101413

  ion indices of the primitive-cell ions
   primitive index   ion index
                 1           1
                 2           2
                 3           3
                 4           4
                 5           5
                 6           6
                 7           7
                 8           8
                 9           9
                10          10
                11          11
                12          12
                13          13
                14          14
                15          15
                16          16
                17          17
                18          18
                19          19
                20          20
                21          21
                22          22
                23          23
                24          24
                25          25
                26          26
                27          27
                28          28
                29          29
                30          30
                31          31
                32          32
                33          33
                34          34
                35          35
                36          36
                37          37
                38          38
                39          39
                40          40
                41          41
                42          42
                43          43
                44          44
                45          45
                46          46
                47          47
                48          48
                49          49
                50          50
                51          51
                52          52
                53          53
                54          54
                55          55
                56          56
                57          57
                58          58
                59          59
                60          60
                61          61
                62          62
                63          63
                64          64
                65          65
                66          66
                67          67
                68          68
                69          69
                70          70
                71          71
                72          72
                73          73
                74          74
                75          75
                76          76
                77          77
                78          78
                79          79
                80          80
                81          81
                82          82
                83          83
                84          84
                85          85
                86          86
                87          87
                88          88
                89          89
                90          90
                91          91
                92          92
                93          93
                94          94
                95          95
                96          96
                97          97
                98          98
                99          99
               100         100
               101         101
               102         102
               103         103
               104         104
               105         105
               106         106
               107         107
               108         108

----------------------------------------------------------------------------------------



 KPOINTS: K-Points

Automatic generation of k-mesh.
 Grid dimensions read from file:
 generate k-points for:    2    2    2

 Generating k-lattice:

  Cartesian coordinates                     Fractional coordinates (reciprocal lattice)
     0.043948922  0.000000000  0.000000000     0.500000000  0.000000000  0.000000000
     0.000000000  0.043948922  0.000000000     0.000000000  0.500000000  0.000000000
     0.000000000  0.000000000  0.052058529     0.000000000  0.000000000  0.500000000

  Length of vectors
     0.043948922  0.043948922  0.052058529

  Shift w.r.t. Gamma in fractional coordinates (k-lattice)
     0.500000000  0.500000000  0.500000000


 Subroutine IBZKPT returns following result:
 ===========================================

 Found      4 irreducible k-points:

 Following reciprocal coordinates:
            Coordinates               Weight
  0.250000  0.250000  0.250000      2.000000
 -0.250000  0.250000  0.250000      2.000000
 -0.250000 -0.250000  0.250000      2.000000
  0.250000 -0.250000  0.250000      2.000000

 Following cartesian coordinates:
            Coordinates               Weight
  0.021974  0.021974  0.026029      2.000000
 -0.021974  0.021974  0.026029      2.000000
 -0.021974 -0.021974  0.026029      2.000000
  0.021974 -0.021974  0.026029      2.000000


 Subroutine IBZKPT_HF returns following result:
 ==============================================

 Found      8 k-points in 1st BZ
 the following      8 k-points will be used (e.g. in the exchange kernel)
 Following reciprocal coordinates:   # in IRBZ
  0.250000  0.250000  0.250000    0.12500000   1 t-inv F
 -0.250000  0.250000  0.250000    0.12500000   2 t-inv F
 -0.250000 -0.250000  0.250000    0.12500000   3 t-inv F
  0.250000 -0.250000  0.250000    0.12500000   4 t-inv F
 -0.250000 -0.250000 -0.250000    0.12500000   1 t-inv T
  0.250000 -0.250000 -0.250000    0.12500000   2 t-inv T
  0.250000  0.250000 -0.250000    0.12500000   3 t-inv T
 -0.250000  0.250000 -0.250000    0.12500000   4 t-inv T


--------------------------------------------------------------------------------------------------------




 Dimension of arrays:
   k-points           NKPTS =      4   k-points in BZ     NKDIM =      4   number of bands    NBANDS=    476
   number of dos      NEDOS =    301   number of ions     NIONS =    108
   non local maximal  LDIM  =      6   non local SUM 2l+1 LMDIM =     18
   total plane-waves  NPLWV = 150528
   max r-space proj   IRMAX =   1791   max aug-charges    IRDMAX=   4900
   dimension x,y,z NGX =    56 NGY =   56 NGZ =   48
   dimension x,y,z NGXF=   112 NGYF=  112 NGZF=   96
   support grid    NGXF=   112 NGYF=  112 NGZF=   96
   ions per type =              36  72
   NGX,Y,Z   is equivalent  to a cutoff of   8.18,  8.18,  8.31 a.u.
   NGXF,Y,Z  is equivalent  to a cutoff of  16.37, 16.37, 16.62 a.u.

 SYSTEM =  unknown system
 POSCAR =  Ti4 O8

 Startparameter for this run:
   NWRITE =      2    write-flag & timer
   PREC   = normal    normal or accurate (medium, high low for compatibility)
   ISTART =      0    job   : 0-new  1-cont  2-samecut
   ICHARG =      2    charge: 1-file 2-atom 10-const
   ISPIN  =      1    spin polarized calculation?
   LNONCOLLINEAR =      F non collinear calculations
   LSORBIT =      F    spin-orbit coupling
   INIWAV =      1    electr: 0-lowe 1-rand  2-diag
   LASPH  =      F    aspherical Exc in radial PAW
 Electronic Relaxation 1
   ENCUT  =  400.0 eV  29.40 Ry    5.42 a.u.  18.55 18.55 15.66*2*pi/ulx,y,z
   ENINI  =  400.0     initial cutoff
   ENAUG  =  605.4 eV  augmentation charge cutoff
   NELM   =     80;   NELMIN=  4; NELMDL= -5     # of ELM steps
   EDIFF  = 0.1E-06   stopping-criterion for ELM
   LREAL  =      T    real-space projection
   NLSPLINE    = F    spline interpolate recip. space projectors
   LCOMPAT=      F    compatible to vasp.4.4
   GGA_COMPAT  = T    GGA compatible to vasp.4.4-vasp.4.6
   LMAXPAW     = -100 max onsite density
   LMAXMIX     =    2 max onsite mixed and CHGCAR
   VOSKOWN=      0    Vosko Wilk Nusair interpolation
   ROPT   =   -0.00050  -0.00050
 Ionic relaxation
   EDIFFG = 0.1E-05   stopping-criterion for IOM
   NSW    =      0    number of steps for IOM
   NBLOCK =      1;   KBLOCK =      1    inner block; outer block
   IBRION =     -1    ionic relax: 0-MD 1-quasi-New 2-CG
   NFREE  =      0    steps in history (QN), initial steepest desc. (CG)
   ISIF   =      2    stress and relaxation
   IWAVPR =     10    prediction:  0-non 1-charg 2-wave 3-comb
   ISYM   =      0    0-nonsym 1-usesym 2-fastsym
   LCORR  =      T    Harris-Foulkes like correction to forces

   POTIM  = 0.5000    time-step for ionic-motion
   TEIN   =    0.0    initial temperature
   TEBEG  =    0.0;   TEEND  =   0.0 temperature during run
   SMASS  =  -3.00    Nose mass-parameter (am)
   estimated Nose-frequenzy (Omega)   =  0.10E-29 period in steps = 0.13E+47 mass=  -0.296E-26a.u.
   SCALEE = 1.0000    scale energy and forces
   NPACO  =    256;   APACO  = 10.0  distance and # of slots for P.C.
   PSTRESS=    0.0 pullay stress

  Mass of Ions in am
   POMASS =  47.88 16.00
  Ionic Valenz
   ZVAL   =  10.00  6.00
  Atomic Wigner-Seitz radii
   RWIGS  =  -1.00 -1.00
  virtual crystal weights
   VCA    =   1.00  1.00
   NELECT =     792.0000    total number of electrons
   NUPDOWN=      -1.0000    fix difference up-down

 DOS related values:
   EMIN   =  10.00;   EMAX   =-10.00  energy-range for DOS
   EFERMI =   0.00
   ISMEAR =     0;   SIGMA  =   0.10  broadening in eV -4-tet -1-fermi 0-gaus

 Electronic relaxation 2 (details)
   IALGO  =     38    algorithm
   LDIAG  =      T    sub-space diagonalisation (order eigenvalues)
   LSUBROT=      F    optimize rotation matrix (better conditioning)
   TURBO    =      0    0=normal 1=particle mesh
   IRESTART =      0    0=no restart 2=restart with 2 vectors
   NREBOOT  =      0    no. of reboots
   NMIN     =      0    reboot dimension
   EREF     =   0.00    reference energy to select bands
   IMIX   =      4    mixing-type and parameters
     AMIX     =   0.40;   BMIX     =  1.00
     AMIX_MAG =   1.60;   BMIX_MAG =  1.00
     AMIN     =   0.10
     WC   =   100.;   INIMIX=   1;  MIXPRE=   1;  MAXMIX= -45

 Intra band minimization:
   WEIMIN = 0.0000     energy-eigenvalue tresh-hold
   EBREAK =  0.53E-10  absolut break condition
   DEPER  =   0.30     relativ break condition

   TIME   =   0.40     timestep for ELM

  volume/ion in A,a.u.               =      11.51        77.68
  Fermi-wavevector in a.u.,A,eV,Ry     =   1.408670  2.662001 26.998745  1.984352
  Thomas-Fermi vector in A             =   2.530804

 Write flags
   LWAVE        =      F    write WAVECAR
   LDOWNSAMPLE  =      F    k-point downsampling of WAVECAR
   LCHARG       =      F    write CHGCAR
   LVTOT        =      F    write LOCPOT, total local potential
   LVHAR        =      F    write LOCPOT, Hartree potential only
   LELF         =      F    write electronic localiz. function (ELF)
   LORBIT       =      0    0 simple, 1 ext, 2 COOP (PROOUT), +10 PAW based schemes


 Dipole corrections
   LMONO  =      F    monopole corrections only (constant potential shift)
   LDIPOL =      F    correct potential (dipole corrections)
   IDIPOL =      0    1-x, 2-y, 3-z, 4-all directions
   EPSILON=  1.0000000 bulk dielectric constant

 Exchange correlation treatment:
   GGA     =    --    GGA type
   LEXCH   =     8    internal setting for exchange type
   LIBXC   =     F    Libxc
   VOSKOWN =     0    Vosko Wilk Nusair interpolation
   LHFCALC =     F    Hartree Fock is set to
   LHFONE  =     F    Hartree Fock one center treatment
   AEXX    =    0.0000 exact exchange contribution

 Linear response parameters
   LEPSILON=     T    determine dielectric tensor
   LRPA    =     F    only Hartree local field effects (RPA)
   LNABLA  =     F    use nabla operator in PAW spheres
   LVEL    =     F    velocity operator in full k-point grid
   CSHIFT  =0.1000    complex shift for real part using Kramers Kronig
   OMEGAMAX=  -1.0    maximum frequency
   DEG_THRESHOLD= 0.2000000E-02 threshold for treating states as degnerate
   RTIME   =   -0.100 relaxation time in fs
  (WPLASMAI=    0.000 imaginary part of plasma frequency in eV, 0.658/RTIME)
   DFIELD  = 0.0000000 0.0000000 0.0000000 field for delta impulse in time

  Optional k-point grid parameters
   LKPOINTS_OPT  =     F    use optional k-point grid
   KPOINTS_OPT_MODE=     1    mode for optional k-point grid

 Orbital magnetization related:
   ORBITALMAG=     F  switch on orbital magnetization
   LCHIMAG   =     F  perturbation theory with respect to B field
   DQ        =  0.001000  dq finite difference perturbation B field
   LLRAUG    =     F  two centre corrections for induced B field

 PEAD related settings:
   LPEAD      =     T    switch on PEAD
   IPEAD      =     4    finite difference order for dpsi/dk
   LCALCPOL   =     F    calculate macroscopic polarization
   LCALCEPS   =     F    calculate dielectric tensor
   EFIELD_PEAD=    0.0000    0.0000    0.0000
   SKIP_EDOTP =     F
   LRPA       =     F
   SKIP_SCF   =     F


--------------------------------------------------------------------------------------------------------


 Static calculation
 charge density and potential will be updated during run
 non-spin polarized calculation
 Variant of blocked Davidson
 Davidson routine will perform the subspace rotation
 perform sub-space diagonalisation
    after iterative eigenvector-optimisation
 modified Broyden-mixing scheme, WC =      100.0
 initial mixing is a Kerker type mixing with AMIX =  0.4000 and BMIX =      1.0000
 Hartree-type preconditioning will be used
 using additional bands           80
 real space projection scheme for non local part
 use partial core corrections
 calculate Harris-corrections to forces
   (improved forces if not selfconsistent)
 use gradient corrections
 use of overlap-Matrix (Vanderbilt PP)
 Gauss-broadening in eV      SIGMA  =   0.10


--------------------------------------------------------------------------------------------------------


  energy-cutoff  :      400.00
  volume of cell :     1243.14
      direct lattice vectors                 reciprocal lattice vectors
    11.376843452  0.000000000  0.000000000     0.087897843  0.000000000  0.000000000
     0.000000000 11.376843452  0.000000000     0.000000000  0.087897843  0.000000000
     0.000000000  0.000000000  9.604574204     0.000000000  0.000000000  0.104117057

  length of vectors
    11.376843452 11.376843452  9.604574204     0.087897843  0.087897843  0.104117057



 k-points in units of 2pi/SCALE and weight: K-Points
   0.02197446  0.02197446  0.02602926       0.250
  -0.02197446  0.02197446  0.02602926       0.250
  -0.02197446 -0.02197446  0.02602926       0.250
   0.02197446 -0.02197446  0.02602926       0.250

 k-points in reciprocal lattice and weights: K-Points
   0.25000000  0.25000000  0.25000000       0.250
  -0.25000000  0.25000000  0.25000000       0.250
  -0.25000000 -0.25000000  0.25000000       0.250
   0.25000000 -0.25000000  0.25000000       0.250

 position of ions in fractional coordinates (direct lattice)
   0.16666667  0.16666667  0.50000000
   0.16666667  0.50000000  0.50000000
   0.16666667  0.83333331  0.50000000
   0.50000000  0.16666667  0.50000000
   0.50000000  0.50000000  0.50000000
   0.50000000  0.83333331  0.50000000
   0.83333331  0.16666667  0.50000000
   0.83333331  0.50000000  0.50000000
   0.83333331  0.83333331  0.50000000
   0.16666667  0.00000000  0.75000000
   0.16666667  0.33333334  0.75000000
   0.16666667  0.66666669  0.75000000
   0.50000000  0.00000000  0.75000000
   0.50000000  0.33333334  0.75000000
   0.50000000  0.66666669  0.75000000
   0.83333331  0.00000000  0.75000000
   0.83333331  0.33333334  0.75000000
   0.83333331  0.66666669  0.75000000
   0.00000000  0.00000000  0.00000000
   0.00000000  0.33333334  0.00000000
   0.00000000  0.66666669  0.00000000
   0.33333334  0.00000000  0.00000000
   0.33333334  0.33333334  0.00000000
   0.33333334  0.66666669  0.00000000
   0.66666669  0.00000000  0.00000000
   0.66666669  0.33333334  0.00000000
   0.66666669  0.66666669  0.00000000
   0.00000000  0.16666667  0.25000000
   0.00000000  0.50000000  0.25000000
   0.00000000  0.83333331  0.25000000
   0.33333334  0.16666667  0.25000000
   0.33333334  0.50000000  0.25000000
   0.33333334  0.83333331  0.25000000
   0.66666669  0.16666667  0.25000000
   0.66666669  0.50000000  0.25000000
   0.66666669  0.83333331  0.25000000
   0.00000000  0.16666667  0.45789859
   0.00000000  0.50000000  0.45789859
   0.00000000  0.83333331  0.45789859
   0.33333334  0.16666667  0.45789859
   0.33333334  0.50000000  0.45789859
   0.33333334  0.83333331  0.45789859
   0.66666669  0.16666667  0.43707518
   0.66666669  0.50000000  0.45789859
   0.66666669  0.83333331  0.45789859
   0.16666667  0.16666667  0.70789862
   0.16666667  0.50000000  0.70789862
   0.16666667  0.83333331  0.70789862
   0.50000000  0.16666667  0.70789862
   0.50000000  0.50000000  0.70789862
   0.50000000  0.83333331  0.70789862
   0.83333331  0.16666667  0.70789862
   0.83333331  0.50000000  0.70789862
   0.83333331  0.83333331  0.70789862
   0.16666667  0.00000000  0.54210138
   0.16666667  0.33333334  0.54210138
   0.16666667  0.66666669  0.54210138
   0.50000000  0.00000000  0.54210138
   0.50000000  0.33333334  0.54210138
   0.50000000  0.66666669  0.54210138
   0.83333331  0.00000000  0.54210138
   0.83333331  0.33333334  0.54210138
   0.83333331  0.66666669  0.54210138
   0.00000000  0.00000000  0.79210138
   0.00000000  0.33333334  0.79210138
   0.00000000  0.66666669  0.79210138
   0.33333334  0.00000000  0.79210138
   0.33333334  0.33333334  0.79210138
   0.33333334  0.66666669  0.79210138
   0.66666669  0.00000000  0.79210138
   0.66666669  0.33333334  0.79210138
   0.66666669  0.66666669  0.79210138
   0.16666667  0.00000000  0.95789862
   0.16666667  0.33333334  0.95789862
   0.16666667  0.66666669  0.95789862
   0.50000000  0.00000000  0.95789862
   0.50000000  0.33333334  0.95789862
   0.50000000  0.66666669  0.95789862
   0.83333331  0.00000000  0.95789862
   0.83333331  0.33333334  0.95789862
   0.83333331  0.66666669  0.95789862
   0.00000000  0.00000000  0.20789860
   0.00000000  0.33333334  0.20789860
   0.00000000  0.66666669  0.20789860
   0.33333334  0.00000000  0.20789860
   0.33333334  0.33333334  0.20789860
   0.33333334  0.66666669  0.20789860
   0.66666669  0.00000000  0.20789860
   0.66666669  0.33333334  0.20789860
   0.66666669  0.66666669  0.20789860
   0.00000000  0.16666667  0.04210141
   0.00000000  0.50000000  0.04210141
   0.00000000  0.83333331  0.04210141
   0.33333334  0.16666667  0.04210141
   0.33333334  0.50000000  0.04210141
   0.33333334  0.83333331  0.04210141
   0.66666669  0.16666667  0.04210141
   0.66666669  0.50000000  0.04210141
   0.66666669  0.83333331  0.04210141
   0.16666667  0.16666667  0.29210141
   0.16666667  0.50000000  0.29210141
   0.16666667  0.83333331  0.29210141
   0.50000000  0.16666667  0.29210141
   0.50000000  0.50000000  0.29210141
   0.50000000  0.83333331  0.29210141
   0.83333331  0.16666667  0.29210141
   0.83333331  0.50000000  0.29210141
   0.83333331  0.83333331  0.29210141

 position of ions in cartesian coordinates  (Angst):
   1.89614063  1.89614063  4.80228710
   1.89614063  5.68842173  4.80228710
   1.89614063  9.48070265  4.80228710
   5.68842173  1.89614063  4.80228710
   5.68842173  5.68842173  4.80228710
   5.68842173  9.48070265  4.80228710
   9.48070265  1.89614063  4.80228710
   9.48070265  5.68842173  4.80228710
   9.48070265  9.48070265  4.80228710
   1.89614063  0.00000000  7.20343065
   1.89614063  3.79228126  7.20343065
   1.89614063  7.58456253  7.20343065
   5.68842173  0.00000000  7.20343065
   5.68842173  3.79228126  7.20343065
   5.68842173  7.58456253  7.20343065
   9.48070265  0.00000000  7.20343065
   9.48070265  3.79228126  7.20343065
   9.48070265  7.58456253  7.20343065
   0.00000000  0.00000000  0.00000000
   0.00000000  3.79228126  0.00000000
   0.00000000  7.58456253  0.00000000
   3.79228126  0.00000000  0.00000000
   3.79228126  3.79228126  0.00000000
   3.79228126  7.58456253  0.00000000
   7.58456253  0.00000000  0.00000000
   7.58456253  3.79228126  0.00000000
   7.58456253  7.58456253  0.00000000
   0.00000000  1.89614063  2.40114355
   0.00000000  5.68842173  2.40114355
   0.00000000  9.48070265  2.40114355
   3.79228126  1.89614063  2.40114355
   3.79228126  5.68842173  2.40114355
   3.79228126  9.48070265  2.40114355
   7.58456253  1.89614063  2.40114355
   7.58456253  5.68842173  2.40114355
   7.58456253  9.48070265  2.40114355
   0.00000000  1.89614063  4.39792096
   0.00000000  5.68842173  4.39792096
   0.00000000  9.48070265  4.39792096
   3.79228126  1.89614063  4.39792096
   3.79228126  5.68842173  4.39792096
   3.79228126  9.48070265  4.39792096
   7.58456253  1.89614063  4.19792096
   7.58456253  5.68842173  4.39792096
   7.58456253  9.48070265  4.39792096
   1.89614063  1.89614063  6.79906479
   1.89614063  5.68842173  6.79906479
   1.89614063  9.48070265  6.79906479
   5.68842173  1.89614063  6.79906479
   5.68842173  5.68842173  6.79906479
   5.68842173  9.48070265  6.79906479
   9.48070265  1.89614063  6.79906479
   9.48070265  5.68842173  6.79906479
   9.48070265  9.48070265  6.79906479
   1.89614063  0.00000000  5.20665296
   1.89614063  3.79228126  5.20665296
   1.89614063  7.58456253  5.20665296
   5.68842173  0.00000000  5.20665296
   5.68842173  3.79228126  5.20665296
   5.68842173  7.58456253  5.20665296
   9.48070265  0.00000000  5.20665296
   9.48070265  3.79228126  5.20665296
   9.48070265  7.58456253  5.20665296
   0.00000000  0.00000000  7.60779651
   0.00000000  3.79228126  7.60779651
   0.00000000  7.58456253  7.60779651
   3.79228126  0.00000000  7.60779651
   3.79228126  3.79228126  7.60779651
   3.79228126  7.58456253  7.60779651
   7.58456253  0.00000000  7.60779651
   7.58456253  3.79228126  7.60779651
   7.58456253  7.58456253  7.60779651
   1.89614063  0.00000000  9.20020834
   1.89614063  3.79228126  9.20020834
   1.89614063  7.58456253  9.20020834
   5.68842173  0.00000000  9.20020834
   5.68842173  3.79228126  9.20020834
   5.68842173  7.58456253  9.20020834
   9.48070265  0.00000000  9.20020834
   9.48070265  3.79228126  9.20020834
   9.48070265  7.58456253  9.20020834
   0.00000000  0.00000000  1.99677755
   0.00000000  3.79228126  1.99677755
   0.00000000  7.58456253  1.99677755
   3.79228126  0.00000000  1.99677755
   3.79228126  3.79228126  1.99677755
   3.79228126  7.58456253  1.99677755
   7.58456253  0.00000000  1.99677755
   7.58456253  3.79228126  1.99677755
   7.58456253  7.58456253  1.99677755
   0.00000000  1.89614063  0.40436607
   0.00000000  5.68842173  0.40436607
   0.00000000  9.48070265  0.40436607
   3.79228126  1.89614063  0.40436607
   3.79228126  5.68842173  0.40436607
   3.79228126  9.48070265  0.40436607
   7.58456253  1.89614063  0.40436607
   7.58456253  5.68842173  0.40436607
   7.58456253  9.48070265  0.40436607
   1.89614063  1.89614063  2.80550970
   1.89614063  5.68842173  2.80550970
   1.89614063  9.48070265  2.80550970
   5.68842173  1.89614063  2.80550970
   5.68842173  5.68842173  2.80550970
   5.68842173  9.48070265  2.80550970
   9.48070265  1.89614063  2.80550970
   9.48070265  5.68842173  2.80550970
   9.48070265  9.48070265  2.80550970



--------------------------------------------------------------------------------------------------------


 k-point   1 :   0.2500 0.2500 0.2500  plane waves:   22590
 k-point   2 :  -0.2500 0.2500 0.2500  plane waves:   22590
 k-point   3 :  -0.2500-0.2500 0.2500  plane waves:   22590
 k-point   4 :   0.2500-0.2500 0.2500  plane waves:   22590

 maximum and minimum number of plane-waves per node :     22590    22590

 maximum number of plane-waves:     22590
 maximum index in each direction:
   IXMAX=   18   IYMAX=   18   IZMAX=   15
   IXMIN=  -18   IYMIN=  -18   IZMIN=  -15


 serial   3D FFT for wavefunctions
 parallel 3D FFT for charge:
    minimum data exchange during FFTs selected (reduces bandwidth)


 total amount of memory used by VASP MPI-rank0   266725. kBytes
=======================================================================

   base      :      30000. kBytes
   nonlr-proj:      19556. kBytes
   fftplans  :      10927. kBytes
   grid      :      23181. kBytes
   one-center:       1679. kBytes
   wavefun   :     181382. kBytes

     INWAV:  cpu time      0.0000: real time      0.0002
 Broyden mixing: mesh for mixing (old mesh)
   NGX = 37   NGY = 37   NGZ = 31
  (NGX  =112   NGY  =112   NGZ  = 96)
  gives a total of  42439 points

 initial charge density was supplied:
 charge density of overlapping atoms calculated
 number of electron     792.0000000 magnetization
 keeping initial charge density in first step


--------------------------------------------------------------------------------------------------------


 Maximum index for non-local projection operator         1743
 Maximum index for augmentation-charges         1189 (set IRDMAX)


--------------------------------------------------------------------------------------------------------


 First call to EWALD:  gamma=   0.165
 Maximum number of real-space cells 3x 3x 3
 Maximum number of reciprocal cells 3x 3x 3

    FEWALD:  cpu time      0.0347: real time      0.0360


--------------------------------------- Iteration      1(   1)  ---------------------------------------


    POTLOK:  cpu time      0.1809: real time      0.1830
    SETDIJ:  cpu time      0.0081: real time      0.0086
     EDDAV:  cpu time     11.7899: real time     12.7032
       DOS:  cpu time      0.0028: real time      0.0030
    --------------------------------------------
      LOOP:  cpu time     11.9818: real time     12.8978

 eigenvalue-minimisations  :  3824
 total energy-change (2. order) : 0.1156226E+05  (-0.3305619E+05)
 number of electron     792.0000000 magnetization
 augmentation part      792.0000000 magnetization

 Free energy of the ion-electron system (eV)
  ---------------------------------------------------
  alpha Z        PSCENC =      3563.47650690
  Ewald energy   TEWEN  =    -48565.67396279
  -Hartree energ DENC   =    -18860.95991991
  -exchange      EXHF   =         0.00000000
  -V(xc)+E(xc)   XCENC  =      3287.02151421
  PAW double counting   =     54431.09303398   -54537.79254336
  entropy T*S    EENTRO =        -0.14620432
  eigenvalues    EBANDS =      3588.83835670
  atomic energy  EATOM  =     68656.39924158
  Solvation  Ediel_sol  =         0.00000000
  ---------------------------------------------------
  free energy    TOTEN  =     11562.25602298 eV

  energy without entropy =    11562.40222730  energy(sigma->0) =    11562.32912514


--------------------------------------------------------------------------------------------------------




--------------------------------------- Iteration      1(   2)  ---------------------------------------


     EDDAV:  cpu time     13.2782: real time     13.8606
       DOS:  cpu time      0.0008: real time      0.0008
    --------------------------------------------
      LOOP:  cpu time     13.2791: real time     13.8615

 eigenvalue-minimisations  :  3808
 total energy-change (2. order) :-0.9988524E+04  (-0.9557742E+04)
 number of electron     792.0000000 magnetization
 augmentation part      792.0000000 magnetization

 Free energy of the ion-electron system (eV)
  ---------------------------------------------------
  alpha Z        PSCENC =      3563.47650690
  Ewald energy   TEWEN  =    -48565.67396279
  -Hartree energ DENC   =    -18860.95991991
  -exchange      EXHF   =         0.00000000
  -V(xc)+E(xc)   XCENC  =      3287.02151421
  PAW double counting   =     54431.09303398   -54537.79254336
  entropy T*S    EENTRO =        -0.28262263
  eigenvalues    EBANDS =     -6399.54923045
  atomic energy  EATOM  =     68656.39924158
  Solvation  Ediel_sol  =         0.00000000
  ---------------------------------------------------
  free energy    TOTEN  =      1573.73201753 eV

  energy without entropy =     1574.01464016  energy(sigma->0) =     1573.87332884


--------------------------------------------------------------------------------------------------------




--------------------------------------- Iteration      1(   3)  ---------------------------------------


     EDDAV:  cpu time     15.8163: real time     15.9811
       DOS:  cpu time      0.0006: real time      0.0006
    --------------------------------------------
      LOOP:  cpu time     15.8169: real time     15.9817

 eigenvalue-minimisations  :  4408
 total energy-change (2. order) :-0.2642281E+04  (-0.2570640E+04)
 number of electron     792.0000000 magnetization
 augmentation part      792.0000000 magnetization

 Free energy of the ion-electron system (eV)
  ---------------------------------------------------
  alpha Z        PSCENC =      3563.47650690
  Ewald energy   TEWEN  =    -48565.67396279
  -Hartree energ DENC   =    -18860.95991991
  -exchange      EXHF   =         0.00000000
  -V(xc)+E(xc)   XCENC  =      3287.02151421
  PAW double counting   =     54431.09303398   -54537.79254336
  entropy T*S    EENTRO =        -0.00000000
  eigenvalues    EBANDS =     -9042.11242578
  atomic energy  EATOM  =     68656.39924158
  Solvation  Ediel_sol  =         0.00000000
  ---------------------------------------------------
  free energy    TOTEN  =     -1068.54855517 eV

  energy without entropy =    -1068.54855517  energy(sigma->0) =    -1068.54855517


--------------------------------------------------------------------------------------------------------




--------------------------------------- Iteration      1(   4)  ---------------------------------------


     EDDAV:  cpu time     18.0690: real time     18.2514
       DOS:  cpu time      0.0008: real time      0.0008
    --------------------------------------------
      LOOP:  cpu time     18.0697: real time     18.2522

 eigenvalue-minimisations  :  5120
 total energy-change (2. order) :-0.2049678E+03  (-0.2039402E+03)
 number of electron     792.0000000 magnetization
 augmentation part      792.0000000 magnetization

 Free energy of the ion-electron system (eV)
  ---------------------------------------------------
  alpha Z        PSCENC =      3563.47650690
  Ewald energy   TEWEN  =    -48565.67396279
  -Hartree energ DENC   =    -18860.95991991
  -exchange      EXHF   =         0.00000000
  -V(xc)+E(xc)   XCENC  =      3287.02151421
  PAW double counting   =     54431.09303398   -54537.79254336
  entropy T*S    EENTRO =        -0.00000000
  eigenvalues    EBANDS =     -9247.08019698
  atomic energy  EATOM  =     68656.39924158
  Solvation  Ediel_sol  =         0.00000000
  ---------------------------------------------------
  free energy    TOTEN  =     -1273.51632638 eV

  energy without entropy =    -1273.51632638  energy(sigma->0) =    -1273.51632638


--------------------------------------------------------------------------------------------------------




--------------------------------------- Iteration      1(   5)  ---------------------------------------


     EDDAV:  cpu time     17.6279: real time     17.7989
       DOS:  cpu time      0.0005: real time      0.0005
    CHARGE:  cpu time      0.2198: real time      0.2284
    MIXING:  cpu time      0.0103: real time      0.0117
    --------------------------------------------
      LOOP:  cpu time     17.8586: real time     18.0397

 eigenvalue-minimisations  :  4992
 total energy-change (2. order) :-0.4939818E+01  (-0.4928835E+01)
 number of electron     792.0003056 magnetization
 augmentation part      202.2733003 magnetization

 Broyden mixing:
  rms(total) = 0.17285E+02    rms(broyden)= 0.17283E+02
  rms(prec ) = 0.19218E+02
  weight for this iteration     100.00

 Free energy of the ion-electron system (eV)
  ---------------------------------------------------
  alpha Z        PSCENC =      3563.47650690
  Ewald energy   TEWEN  =    -48565.67396279
  -Hartree energ DENC   =    -18860.95991991
  -exchange      EXHF   =         0.00000000
  -V(xc)+E(xc)   XCENC  =      3287.02151421
  PAW double counting   =     54431.09303398   -54537.79254336
  entropy T*S    EENTRO =        -0.00000000
  eigenvalues    EBANDS =     -9252.02001453
  atomic energy  EATOM  =     68656.39924158
  Solvation  Ediel_sol  =         0.00000000
  ---------------------------------------------------
  free energy    TOTEN  =     -1278.45614393 eV

  energy without entropy =    -1278.45614393  energy(sigma->0) =    -1278.45614393


--------------------------------------------------------------------------------------------------------




--------------------------------------- Iteration      1(   6)  ---------------------------------------


    POTLOK:  cpu time      0.1926: real time      0.1944
    SETDIJ:  cpu time      0.0146: real time      0.0149
     EDDAV:  cpu time     17.4707: real time     17.6350
       DOS:  cpu time      0.0005: real time      0.0005
    CHARGE:  cpu time      0.2189: real time      0.2265
    MIXING:  cpu time      0.0120: real time      0.0145
    --------------------------------------------
      LOOP:  cpu time     17.9095: real time     18.0860

 eigenvalue-minimisations  :  4960
 total energy-change (2. order) : 0.3025013E+03  (-0.1976996E+03)
 number of electron     792.0002462 magnetization
 augmentation part      214.1104574 magnetization

 Broyden mixing:
  rms(total) = 0.53249E+01    rms(broyden)= 0.53200E+01
  rms(prec ) = 0.58487E+01
  weight for this iteration     100.00

 eigenvalues of (default mixing * dielectric matrix)
  average eigenvalue GAMMA=   0.9670
  0.9670

 Free energy of the ion-electron system (eV)
  ---------------------------------------------------
  alpha Z        PSCENC =      3563.47650690
  Ewald energy   TEWEN  =    -48565.67396279
  -Hartree energ DENC   =    -19088.38626120
  -exchange      EXHF   =         0.00000000
  -V(xc)+E(xc)   XCENC  =      3338.12671752
  PAW double counting   =     68300.15290085   -68532.53115047
  entropy T*S    EENTRO =        -0.00000000
  eigenvalues    EBANDS =     -8647.51884610
  atomic energy  EATOM  =     68656.39924158
  Solvation  Ediel_sol  =         0.00000000
  ---------------------------------------------------
  free energy    TOTEN  =      -975.95485372 eV

  energy without entropy =     -975.95485372  energy(sigma->0) =     -975.95485372


--------------------------------------------------------------------------------------------------------




--------------------------------------- Iteration      1(   7)  ---------------------------------------


    POTLOK:  cpu time      0.1842: real time      0.1862
    SETDIJ:  cpu time      0.0169: real time      0.0171
     EDDAV:  cpu time     18.4490: real time     18.6320
       DOS:  cpu time      0.0042: real time      0.0042
    CHARGE:  cpu time      0.2199: real time      0.2274
    MIXING:  cpu time      0.0114: real time      0.0117
    --------------------------------------------
      LOOP:  cpu time     18.8855: real time     19.0785

 eigenvalue-minimisations  :  5328
 total energy-change (2. order) : 0.4172197E+01  (-0.2858305E+02)
 number of electron     792.0002655 magnetization
 augmentation part      207.3546377 magnetization

 Broyden mixing:
  rms(total) = 0.45987E+01    rms(broyden)= 0.45984E+01
  rms(prec ) = 0.47913E+01
  weight for this iteration     100.00

 eigenvalues of (default mixing * dielectric matrix)
  average eigenvalue GAMMA=   1.8305
  0.7380  2.9230

 Free energy of the ion-electron system (eV)
  ---------------------------------------------------
  alpha Z        PSCENC =      3563.47650690
  Ewald energy   TEWEN  =    -48565.67396279
  -Hartree energ DENC   =    -18931.69700084
  -exchange      EXHF   =         0.00000000
  -V(xc)+E(xc)   XCENC  =      3318.93596982
  PAW double counting   =     75348.82929597   -75592.33950874
  entropy T*S    EENTRO =        -0.00000000
  eigenvalues    EBANDS =     -8769.71319826
  atomic energy  EATOM  =     68656.39924158
  Solvation  Ediel_sol  =         0.00000000
  ---------------------------------------------------
  free energy    TOTEN  =      -971.78265636 eV

  energy without entropy =     -971.78265636  energy(sigma->0) =     -971.78265636


--------------------------------------------------------------------------------------------------------




--------------------------------------- Iteration      1(   8)  ---------------------------------------


    POTLOK:  cpu time      0.1697: real time      0.1800
    SETDIJ:  cpu time      0.0230: real time      0.0234
     EDDAV:  cpu time     17.9212: real time     18.0879
       DOS:  cpu time      0.0037: real time      0.0037
    CHARGE:  cpu time      0.2281: real time      0.2330
    MIXING:  cpu time      0.0113: real time      0.0113
    --------------------------------------------
      LOOP:  cpu time     18.3570: real time     18.5393

 eigenvalue-minimisations  :  5040
 total energy-change (2. order) : 0.1078121E+00  (-0.1081222E+02)
 number of electron     792.0002591 magnetization
 augmentation part      215.4684438 magnetization

 Broyden mixing:
  rms(total) = 0.32854E+01    rms(broyden)= 0.32853E+01
  rms(prec ) = 0.35828E+01
  weight for this iteration     100.00

 eigenvalues of (default mixing * dielectric matrix)
  average eigenvalue GAMMA=   1.2344
  2.1989  0.9129  0.5914

 Free energy of the ion-electron system (eV)
  ---------------------------------------------------
  alpha Z        PSCENC =      3563.47650690
  Ewald energy   TEWEN  =    -48565.67396279
  -Hartree energ DENC   =    -18560.34890856
  -exchange      EXHF   =         0.00000000
  -V(xc)+E(xc)   XCENC  =      3304.34843902
  PAW double counting   =     93774.92247534   -94089.87124042
  entropy T*S    EENTRO =        -0.00000000
  eigenvalues    EBANDS =     -9054.92739533
  atomic energy  EATOM  =     68656.39924158
  Solvation  Ediel_sol  =         0.00000000
  ---------------------------------------------------
  free energy    TOTEN  =      -971.67484425 eV

  energy without entropy =     -971.67484425  energy(sigma->0) =     -971.67484425


--------------------------------------------------------------------------------------------------------




--------------------------------------- Iteration      1(   9)  ---------------------------------------


    POTLOK:  cpu time      0.1945: real time      0.1967
    SETDIJ:  cpu time      0.0091: real time      0.0091
     EDDAV:  cpu time     17.9390: real time     18.1058
       DOS:  cpu time      0.0036: real time      0.0036
    CHARGE:  cpu time      0.2225: real time      0.2291
    MIXING:  cpu time      0.0140: real time      0.0141
    --------------------------------------------
      LOOP:  cpu time     18.3827: real time     18.5584

 eigenvalue-minimisations  :  5112
 total energy-change (2. order) : 0.5346029E+01  (-0.3249020E+01)
 number of electron     792.0002635 magnetization
 augmentation part      211.5676044 magnetization

 Broyden mixing:
  rms(total) = 0.31014E+00    rms(broyden)= 0.30952E+00
  rms(prec ) = 0.33416E+00
  weight for this iteration     100.00

 eigenvalues of (default mixing * dielectric matrix)
  average eigenvalue GAMMA=   1.0907
  2.1485  0.8303  0.6921  0.6921

 Free energy of the ion-electron system (eV)
  ---------------------------------------------------
  alpha Z        PSCENC =      3563.47650690
  Ewald energy   TEWEN  =    -48565.67396279
  -Hartree energ DENC   =    -18697.54580390
  -exchange      EXHF   =         0.00000000
  -V(xc)+E(xc)   XCENC  =      3308.99586786
  PAW double counting   =     88827.74179040   -89124.68349371
  entropy T*S    EENTRO =        -0.00000000
  eigenvalues    EBANDS =     -8935.03896172
  atomic energy  EATOM  =     68656.39924158
  Solvation  Ediel_sol  =         0.00000000
  ---------------------------------------------------
  free energy    TOTEN  =      -966.32881540 eV

  energy without entropy =     -966.32881540  energy(sigma->0) =     -966.32881540


--------------------------------------------------------------------------------------------------------




--------------------------------------- Iteration      1(  10)  ---------------------------------------


    POTLOK:  cpu time      0.1808: real time      0.1844
    SETDIJ:  cpu time      0.0139: real time      0.0151
     EDDAV:  cpu time     18.2680: real time     18.4349
       DOS:  cpu time      0.0040: real time      0.0040
    CHARGE:  cpu time      0.2280: real time      0.2340
    MIXING:  cpu time      0.0142: real time      0.0143
    --------------------------------------------
      LOOP:  cpu time     18.7089: real time     18.8867

 eigenvalue-minimisations  :  5240
 total energy-change (2. order) :-0.3103984E-01  (-0.8438076E-01)
 number of electron     792.0002632 magnetization
 augmentation part      211.4615227 magnetization

 Broyden mixing:
  rms(total) = 0.18955E+00    rms(broyden)= 0.18947E+00
  rms(prec ) = 0.20683E+00
  weight for this iteration     100.00

 eigenvalues of (default mixing * dielectric matrix)
  average eigenvalue GAMMA=   1.2706
  2.4454  1.6548  1.0856  0.6502  0.5168

 Free energy of the ion-electron system (eV)
  ---------------------------------------------------
  alpha Z        PSCENC =      3563.47650690
  Ewald energy   TEWEN  =    -48565.67396279
  -Hartree energ DENC   =    -18721.75081533
  -exchange      EXHF   =         0.00000000
  -V(xc)+E(xc)   XCENC  =      3310.55585754
  PAW double counting   =     88794.65240919   -89092.82758034
  entropy T*S    EENTRO =        -0.00000000
  eigenvalues    EBANDS =     -8911.19151200
  atomic energy  EATOM  =     68656.39924158
  Solvation  Ediel_sol  =         0.00000000
  ---------------------------------------------------
  free energy    TOTEN  =      -966.35985524 eV

  energy without entropy =     -966.35985524  energy(sigma->0) =     -966.35985524


--------------------------------------------------------------------------------------------------------




--------------------------------------- Iteration      1(  11)  ---------------------------------------


    POTLOK:  cpu time      0.2201: real time      0.2223
    SETDIJ:  cpu time      0.0093: real time      0.0095
     EDDAV:  cpu time     16.7088: real time     16.8534
       DOS:  cpu time      0.0034: real time      0.0034
    CHARGE:  cpu time      0.2201: real time      0.2224
    MIXING:  cpu time      0.0128: real time      0.0129
    --------------------------------------------
      LOOP:  cpu time     17.1745: real time     17.3238

 eigenvalue-minimisations  :  4648
 total energy-change (2. order) :-0.7384785E-01  (-0.6103032E-01)
 number of electron     792.0002621 magnetization
 augmentation part      211.5319144 magnetization

 Broyden mixing:
  rms(total) = 0.23608E+00    rms(broyden)= 0.23604E+00
  rms(prec ) = 0.28444E+00
  weight for this iteration     100.00

 eigenvalues of (default mixing * dielectric matrix)
  average eigenvalue GAMMA=   1.2590
  2.5435  1.8114  1.0125  1.0125  0.5871  0.5871

 Free energy of the ion-electron system (eV)
  ---------------------------------------------------
  alpha Z        PSCENC =      3563.47650690
  Ewald energy   TEWEN  =    -48565.67396279
  -Hartree energ DENC   =    -18762.94685144
  -exchange      EXHF   =         0.00000000
  -V(xc)+E(xc)   XCENC  =      3313.52922993
  PAW double counting   =     89303.46776940   -89606.17865682
  entropy T*S    EENTRO =        -0.00000000
  eigenvalues    EBANDS =     -8868.50697984
  atomic energy  EATOM  =     68656.39924158
  Solvation  Ediel_sol  =         0.00000000
  ---------------------------------------------------
  free energy    TOTEN  =      -966.43370309 eV

  energy without entropy =     -966.43370309  energy(sigma->0) =     -966.43370309


--------------------------------------------------------------------------------------------------------




--------------------------------------- Iteration      1(  12)  ---------------------------------------


    POTLOK:  cpu time      0.1763: real time      0.1781
    SETDIJ:  cpu time      0.0171: real time      0.0182
     EDDAV:  cpu time     18.3292: real time     18.5016
       DOS:  cpu time      0.0034: real time      0.0035
    CHARGE:  cpu time      0.2143: real time      0.2181
    MIXING:  cpu time      0.0122: real time      0.0125
    --------------------------------------------
      LOOP:  cpu time     18.7526: real time     18.9319

 eigenvalue-minimisations  :  5240
 total energy-change (2. order) : 0.6395385E-01  (-0.6009242E-01)
 number of electron     792.0002631 magnetization
 augmentation part      211.1867748 magnetization

 Broyden mixing:
  rms(total) = 0.56889E-01    rms(broyden)= 0.56762E-01
  rms(prec ) = 0.67317E-01
  weight for this iteration     100.00

 eigenvalues of (default mixing * dielectric matrix)
  average eigenvalue GAMMA=   1.2269
  2.5856  1.7048  1.2530  1.0397  0.8540  0.5755  0.5755

 Free energy of the ion-electron system (eV)
  ---------------------------------------------------
  alpha Z        PSCENC =      3563.47650690
  Ewald energy   TEWEN  =    -48565.67396279
  -Hartree energ DENC   =    -18760.75795308
  -exchange      EXHF   =         0.00000000
  -V(xc)+E(xc)   XCENC  =      3312.89499241
  PAW double counting   =     89347.74735486   -89649.73413134
  entropy T*S    EENTRO =        -0.00000000
  eigenvalues    EBANDS =     -8870.72179778
  atomic energy  EATOM  =     68656.39924158
  Solvation  Ediel_sol  =         0.00000000
  ---------------------------------------------------
  free energy    TOTEN  =      -966.36974924 eV

  energy without entropy =     -966.36974924  energy(sigma->0) =     -966.36974924


--------------------------------------------------------------------------------------------------------




--------------------------------------- Iteration      1(  13)  ---------------------------------------


    POTLOK:  cpu time      0.1770: real time      0.1803
    SETDIJ:  cpu time      0.0155: real time      0.0159
     EDDAV:  cpu time     18.6690: real time     18.8283
       DOS:  cpu time      0.0031: real time      0.0032
    CHARGE:  cpu time      0.2184: real time      0.2211
    MIXING:  cpu time      0.0128: real time      0.0129
    --------------------------------------------
      LOOP:  cpu time     19.0958: real time     19.2616

 eigenvalue-minimisations  :  5336
 total energy-change (2. order) : 0.1725388E-02  (-0.2396005E-02)
 number of electron     792.0002629 magnetization
 augmentation part      211.2416216 magnetization

 Broyden mixing:
  rms(total) = 0.18913E-01    rms(broyden)= 0.18901E-01
  rms(prec ) = 0.22820E-01
  weight for this iteration     100.00

 eigenvalues of (default mixing * dielectric matrix)
  average eigenvalue GAMMA=   1.1763
  2.6025  1.6539  1.6539  0.9347  0.7136  0.6527  0.6527  0.5468

 Free energy of the ion-electron system (eV)
  ---------------------------------------------------
  alpha Z        PSCENC =      3563.47650690
  Ewald energy   TEWEN  =    -48565.67396279
  -Hartree energ DENC   =    -18761.38423845
  -exchange      EXHF   =         0.00000000
  -V(xc)+E(xc)   XCENC  =      3312.99046696
  PAW double counting   =     89372.34804803   -89674.36584333
  entropy T*S    EENTRO =        -0.00000000
  eigenvalues    EBANDS =     -8870.15824274
  atomic energy  EATOM  =     68656.39924158
  Solvation  Ediel_sol  =         0.00000000
  ---------------------------------------------------
  free energy    TOTEN  =      -966.36802385 eV

  energy without entropy =     -966.36802385  energy(sigma->0) =     -966.36802385


--------------------------------------------------------------------------------------------------------




--------------------------------------- Iteration      1(  14)  ---------------------------------------


    POTLOK:  cpu time      0.1871: real time      0.1891
    SETDIJ:  cpu time      0.0112: real time      0.0116
     EDDAV:  cpu time     18.4966: real time     18.6560
       DOS:  cpu time      0.0035: real time      0.0036
    CHARGE:  cpu time      0.2261: real time      0.2281
    MIXING:  cpu time      0.0130: real time      0.0131
    --------------------------------------------
      LOOP:  cpu time     18.9377: real time     19.1014

 eigenvalue-minimisations  :  5280
 total energy-change (2. order) : 0.1240099E-03  (-0.1187361E-03)
 number of electron     792.0002629 magnetization
 augmentation part      211.2469715 magnetization

 Broyden mixing:
  rms(total) = 0.11363E-01    rms(broyden)= 0.11362E-01
  rms(prec ) = 0.13602E-01
  weight for this iteration     100.00

 eigenvalues of (default mixing * dielectric matrix)
  average eigenvalue GAMMA=   1.1887
  2.5731  1.6594  1.6594  1.0963  0.9674  0.9674  0.6451  0.5649  0.5649

 Free energy of the ion-electron system (eV)
  ---------------------------------------------------
  alpha Z        PSCENC =      3563.47650690
  Ewald energy   TEWEN  =    -48565.67396279
  -Hartree energ DENC   =    -18762.08399327
  -exchange      EXHF   =         0.00000000
  -V(xc)+E(xc)   XCENC  =      3313.03711520
  PAW double counting   =     89368.67692845   -89670.62692795
  entropy T*S    EENTRO =        -0.00000000
  eigenvalues    EBANDS =     -8869.57280796
  atomic energy  EATOM  =     68656.39924158
  Solvation  Ediel_sol  =         0.00000000
  ---------------------------------------------------
  free energy    TOTEN  =      -966.36789984 eV

  energy without entropy =     -966.36789984  energy(sigma->0) =     -966.36789984


--------------------------------------------------------------------------------------------------------




--------------------------------------- Iteration      1(  15)  ---------------------------------------


    POTLOK:  cpu time      0.1755: real time      0.1774
    SETDIJ:  cpu time      0.0246: real time      0.0247
     EDDAV:  cpu time     19.0416: real time     19.2022
       DOS:  cpu time      0.0037: real time      0.0037
    CHARGE:  cpu time      0.2216: real time      0.2233
    MIXING:  cpu time      0.0139: real time      0.0140
    --------------------------------------------
      LOOP:  cpu time     19.4808: real time     19.6453

 eigenvalue-minimisations  :  5464
 total energy-change (2. order) :-0.2198489E-03  (-0.1139538E-03)
 number of electron     792.0002629 magnetization
 augmentation part      211.2386614 magnetization

 Broyden mixing:
  rms(total) = 0.13730E-01    rms(broyden)= 0.13728E-01
  rms(prec ) = 0.16723E-01
  weight for this iteration     100.00

 eigenvalues of (default mixing * dielectric matrix)
  average eigenvalue GAMMA=   1.2148
  2.5795  2.2969  2.0253  0.9168  0.9168  0.8405  0.8405  0.5882  0.5882  0.5555

 Free energy of the ion-electron system (eV)
  ---------------------------------------------------
  alpha Z        PSCENC =      3563.47650690
  Ewald energy   TEWEN  =    -48565.67396279
  -Hartree energ DENC   =    -18762.62904876
  -exchange      EXHF   =         0.00000000
  -V(xc)+E(xc)   XCENC  =      3313.05133175
  PAW double counting   =     89353.51788795   -89655.30878917
  entropy T*S    EENTRO =        -0.00000000
  eigenvalues    EBANDS =     -8869.20128715
  atomic energy  EATOM  =     68656.39924158
  Solvation  Ediel_sol  =         0.00000000
  ---------------------------------------------------
  free energy    TOTEN  =      -966.36811969 eV

  energy without entropy =     -966.36811969  energy(sigma->0) =     -966.36811969


--------------------------------------------------------------------------------------------------------




--------------------------------------- Iteration      1(  16)  ---------------------------------------


    POTLOK:  cpu time      0.1959: real time      0.1980
    SETDIJ:  cpu time      0.0128: real time      0.0144
     EDDAV:  cpu time     18.4832: real time     18.6446
       DOS:  cpu time      0.0035: real time      0.0035
    CHARGE:  cpu time      0.2219: real time      0.2258
    MIXING:  cpu time      0.0145: real time      0.0146
    --------------------------------------------
      LOOP:  cpu time     18.9317: real time     19.1009

 eigenvalue-minimisations  :  5256
 total energy-change (2. order) : 0.1244458E-03  (-0.2032587E-03)
 number of electron     792.0002629 magnetization
 augmentation part      211.2565955 magnetization

 Broyden mixing:
  rms(total) = 0.50766E-02    rms(broyden)= 0.50710E-02
  rms(prec ) = 0.58874E-02
  weight for this iteration     100.00

 eigenvalues of (default mixing * dielectric matrix)
  average eigenvalue GAMMA=   1.1882
  2.5626  2.5626  1.8532  0.9517  0.9266  0.9266  0.7930  0.7930  0.5724  0.5724
  0.5562

 Free energy of the ion-electron system (eV)
  ---------------------------------------------------
  alpha Z        PSCENC =      3563.47650690
  Ewald energy   TEWEN  =    -48565.67396279
  -Hartree energ DENC   =    -18763.54631328
  -exchange      EXHF   =         0.00000000
  -V(xc)+E(xc)   XCENC  =      3313.11921425
  PAW double counting   =     89347.58490257   -89649.28945502
  entropy T*S    EENTRO =        -0.00000000
  eigenvalues    EBANDS =     -8868.43812944
  atomic energy  EATOM  =     68656.39924158
  Solvation  Ediel_sol  =         0.00000000
  ---------------------------------------------------
  free energy    TOTEN  =      -966.36799524 eV

  energy without entropy =     -966.36799524  energy(sigma->0) =     -966.36799524


--------------------------------------------------------------------------------------------------------




--------------------------------------- Iteration      1(  17)  ---------------------------------------


    POTLOK:  cpu time      0.2034: real time      0.2067
    SETDIJ:  cpu time      0.0112: real time      0.0118
     EDDAV:  cpu time     18.4404: real time     18.6074
       DOS:  cpu time      0.0034: real time      0.0034
    CHARGE:  cpu time      0.2255: real time      0.2307
    MIXING:  cpu time      0.0146: real time      0.0157
    --------------------------------------------
      LOOP:  cpu time     18.8985: real time     19.0757

 eigenvalue-minimisations  :  5288
 total energy-change (2. order) : 0.1349696E-04  (-0.2133466E-04)
 number of electron     792.0002629 magnetization
 augmentation part      211.2528042 magnetization

 Broyden mixing:
  rms(total) = 0.11641E-02    rms(broyden)= 0.11588E-02
  rms(prec ) = 0.14012E-02
  weight for this iteration     100.00

 eigenvalues of (default mixing * dielectric matrix)
  average eigenvalue GAMMA=   1.1785
  2.8065  2.4940  1.8211  1.0189  1.0189  0.8633  0.8633  0.7799  0.7799  0.5775
  0.5775  0.5411

 Free energy of the ion-electron system (eV)
  ---------------------------------------------------
  alpha Z        PSCENC =      3563.47650690
  Ewald energy   TEWEN  =    -48565.67396279
  -Hartree energ DENC   =    -18763.88536579
  -exchange      EXHF   =         0.00000000
  -V(xc)+E(xc)   XCENC  =      3313.13513223
  PAW double counting   =     89342.51424244   -89644.20272693
  entropy T*S    EENTRO =        -0.00000000
  eigenvalues    EBANDS =     -8868.13104939
  atomic energy  EATOM  =     68656.39924158
  Solvation  Ediel_sol  =         0.00000000
  ---------------------------------------------------
  free energy    TOTEN  =      -966.36798175 eV

  energy without entropy =     -966.36798175  energy(sigma->0) =     -966.36798175


--------------------------------------------------------------------------------------------------------




--------------------------------------- Iteration      1(  18)  ---------------------------------------


    POTLOK:  cpu time      0.2062: real time      0.2109
    SETDIJ:  cpu time      0.0097: real time      0.0102
     EDDAV:  cpu time     18.2508: real time     18.4050
       DOS:  cpu time      0.0032: real time      0.0032
    CHARGE:  cpu time      0.2221: real time      0.2246
    MIXING:  cpu time      0.0184: real time      0.0186
    --------------------------------------------
      LOOP:  cpu time     18.7103: real time     18.8726

 eigenvalue-minimisations  :  5184
 total energy-change (2. order) :-0.9677344E-05  (-0.5064652E-05)
 number of electron     792.0002629 magnetization
 augmentation part      211.2546621 magnetization

 Broyden mixing:
  rms(total) = 0.21634E-02    rms(broyden)= 0.21631E-02
  rms(prec ) = 0.26057E-02
  weight for this iteration     100.00

 eigenvalues of (default mixing * dielectric matrix)
  average eigenvalue GAMMA=   1.1671
  2.8863  2.4737  1.7451  1.1690  1.1690  0.9233  0.9233  0.7867  0.7867  0.6448
  0.5647  0.5647  0.5349

 Free energy of the ion-electron system (eV)
  ---------------------------------------------------
  alpha Z        PSCENC =      3563.47650690
  Ewald energy   TEWEN  =    -48565.67396279
  -Hartree energ DENC   =    -18763.99339303
  -exchange      EXHF   =         0.00000000
  -V(xc)+E(xc)   XCENC  =      3313.14206517
  PAW double counting   =     89342.59842440   -89644.28872670
[...]
      7.58456      3.79228      1.99678    -0.00002  0.02429 -2.89217 ( -0.63511  6.00000)
      7.58456      7.58456      1.99678    -0.00001  0.00028 -2.88646 ( -0.63490  6.00000)
      0.00000      1.89614      0.40437     0.00105 -0.00025 -2.90491 ( -0.63483  6.00000)
      0.00000      5.68842      0.40437    -0.00152  0.00590 -2.89476 ( -0.63480  6.00000)
      0.00000      9.48070      0.40437    -0.00155 -0.00562 -2.89537 ( -0.63483  6.00000)
      3.79228      1.89614      0.40437    -0.00104 -0.00032 -2.90495 ( -0.63484  6.00000)
      3.79228      5.68842      0.40437     0.00148  0.00588 -2.89533 ( -0.63481  6.00000)
      3.79228      9.48070      0.40437     0.00153 -0.00555 -2.89543 ( -0.63484  6.00000)
      7.58456      1.89614      0.40437    -0.00002 -0.00018 -2.86045 ( -0.63569  6.00000)
      7.58456      5.68842      0.40437     0.00002  0.01437 -2.88532 ( -0.63485  6.00000)
      7.58456      9.48070      0.40437    -0.00001 -0.01404 -2.88539 ( -0.63487  6.00000)
      1.89614      1.89614      2.80551    -0.00035  0.00001 -2.89309 ( -0.63486  6.00000)
      1.89614      5.68842      2.80551    -0.00029  0.00258 -2.89514 ( -0.63482  6.00000)
      1.89614      9.48070      2.80551    -0.00034 -0.00257 -2.89522 ( -0.63483  6.00000)
      5.68842      1.89614      2.80551    -0.15316  0.00003 -2.89899 ( -0.63510  6.00000)
      5.68842      5.68842      2.80551     0.00662  0.00114 -2.89566 ( -0.63475  6.00000)
      5.68842      9.48070      2.80551     0.00659 -0.00119 -2.89622 ( -0.63476  6.00000)
      9.48070      1.89614      2.80551     0.15347 -0.00000 -2.89907 ( -0.63513  6.00000)
      9.48070      5.68842      2.80551    -0.00635  0.00116 -2.89625 ( -0.63477  6.00000)
      9.48070      9.48070      2.80551    -0.00630 -0.00116 -2.89632 ( -0.63478  6.00000)
 -----------------------------------------------------------------------------------------
    total drift (improves with k-points):  -0.00018 -0.00003 -0.07274




--------------------------------------------------------------------------------------------------------




 MACROSCOPIC STATIC DIELECTRIC TENSOR (including local field effects in DFT)
 ------------------------------------------------------
           6.927901     0.000017     0.000016
           0.000018     6.953492    -0.000001
          -0.000002    -0.000007     6.372224
 ------------------------------------------------------



--------------------------------------------------------------------------------------------------------




--------------------------------------------------------------------------------------------------------




 MACROSCOPIC STATIC DIELECTRIC TENSOR (including local field effects in DFT)
 ------------------------------------------------------
           6.927901     0.000017     0.000016
           0.000018     6.953492    -0.000001
          -0.000002    -0.000007     6.372224
 ------------------------------------------------------


 PIEZOELECTRIC TENSOR (including local field effects)  for field in x, y, z        (e  Angst)
          XX          YY          ZZ          XY          YZ          ZX
  --------------------------------------------------------------------------------
  x     0.00204    -0.00126    -0.00078    -0.00088    -0.00021     0.32532
  y     0.00093    -0.00108    -0.00056    -0.00024    -0.37061    -0.00008
  z     0.45873     0.97047    -0.18093    -0.00020    -0.00026     0.00012

 PIEZOELECTRIC TENSOR (including local field effects)  for field in x, y, z        (C/m^2)
          XX          YY          ZZ          XY          YZ          ZX
  --------------------------------------------------------------------------------
  x     0.00003    -0.00002    -0.00001    -0.00001    -0.00000     0.00419
  y     0.00001    -0.00001    -0.00001    -0.00000    -0.00478    -0.00000
  z     0.00591     0.01251    -0.00233    -0.00000    -0.00000     0.00000

 BORN EFFECTIVE CHARGES (including local field effects) (in |e|, cummulative output)
 ---------------------------------------------------------------------------------
 ion    1
    1     6.62138     0.00014     0.00027
    2     0.00002     6.66915    -0.00026
    3     0.00026    -0.00023     5.78108
 ion    2
    1     6.64405    -0.00002    -0.00017
    2     0.00005     6.66447    -0.00414
    3    -0.00019    -0.00946     5.79173
 ion    3
    1     6.64427    -0.00009     0.00027
    2    -0.00003     6.66578     0.00442
    3     0.00024     0.00959     5.79242
 ion    4
    1     6.07254     0.00011     0.05653
    2     0.00002     6.67908     0.00008
    3    -0.05474     0.00022     5.78796
 ion    5
    1     6.69430     0.07022    -0.01790
    2     0.00034     6.66135    -0.00637
    3    -0.00351     0.03366     5.79295
 ion    6
    1     6.69736    -0.07017    -0.01789
    2    -0.00032     6.66541     0.00624
    3    -0.00347    -0.03399     5.79302
 ion    7
    1     6.07357    -0.00004    -0.05673
    2    -0.00002     6.67932    -0.00028
    3     0.05463    -0.00016     5.78871
 ion    8
    1     6.69839    -0.07015     0.01802
    2    -0.00030     6.66431    -0.00637
    3     0.00387     0.03368     5.79300
 ion    9
    1     6.69867     0.07028     0.01761
    2     0.00034     6.66569     0.00666
    3     0.00335    -0.03355     5.79369
 ion   10
    1     6.64401    -0.00002     0.00011
    2     0.00002     6.65338    -0.00745
    3     0.00021     0.00414     5.78031
 ion   11
    1     6.64425    -0.00011    -0.00028
    2    -0.00005     6.65477     0.00727
    3    -0.00015    -0.00429     5.78101
 ion   12
    1     6.65372     0.00011    -0.00028
    2     0.00010     6.65943     0.00033
    3    -0.00017     0.00020     5.78844
 ion   13
    1     6.70628    -0.03452     0.05736
    2    -0.00236     6.61651    -0.03615
    3    -0.01766    -0.00313     5.79275
 ion   14
    1     6.70919     0.03460     0.05729
    2     0.00239     6.62055     0.03626
    3    -0.01766     0.00340     5.79280
 ion   15
    1     6.67763    -0.00000     0.01051
    2     0.00001     6.65579    -0.00014
    3    -0.00649    -0.00025     5.80091
 ion   16
    1     6.71034     0.03453    -0.05741
    2     0.00234     6.61945    -0.03615
    3     0.01742    -0.00316     5.79279
 ion   17
    1     6.71059    -0.03444    -0.05710
    2    -0.00231     6.62081     0.03584
    3     0.01782     0.00302     5.79348
 ion   18
    1     6.67900    -0.00003    -0.01026
    2    -0.00012     6.65602     0.00027
    3     0.00664     0.00021     5.80160
 ion   19
    1     6.62021     0.00497     0.00286
    2    -0.00434     6.66281    -0.01174
    3     0.01754     0.00635     5.79998
 ion   20
    1     6.62317    -0.00486     0.00289
    2     0.00443     6.66688     0.01169
    3     0.01748    -0.00666     5.80002
 ion   21
    1     6.64437     0.00002     0.00114
    2     0.00003     6.65996     0.00014
    3     0.00571     0.00022     5.78757
 ion   22
    1     6.62424    -0.00487    -0.00276
    2     0.00438     6.66571    -0.01174
    3    -0.01717     0.00635     5.80004
 ion   23
    1     6.62450     0.00502    -0.00312
    2    -0.00435     6.66710     0.01210
    3    -0.01767    -0.00618     5.80071
 ion   24
    1     6.64573    -0.00008    -0.00142
    2     0.00001     6.66022    -0.00022
    3    -0.00590    -0.00021     5.78825
 ion   25
    1     6.65113     0.00006    -0.00011
    2     0.00001     6.78640    -0.07454
    3    -0.00021    -0.05381     5.79223
 ion   26
    1     6.65132    -0.00005     0.00024
    2    -0.00004     6.78767     0.07476
    3     0.00022     0.05392     5.79293
 ion   27
    1     6.66143     0.00019     0.00029
    2     0.00008     6.66810    -0.00024
    3     0.00017    -0.00020     5.77605
 ion   28
    1     6.55107     0.00003    -0.00130
    2     0.00003     6.66029    -0.00008
    3    -0.08326    -0.00026     5.78403
 ion   29
    1     6.63008    -0.00462     0.00085
    2    -0.00407     6.65119     0.00026
    3     0.00167    -0.01119     5.77556
 ion   30
    1     6.63296     0.00468     0.00086
    2     0.00406     6.65525    -0.00010
    3     0.00166     0.01148     5.77560
 ion   31
    1     6.55237    -0.00008     0.00159
    2    -0.00008     6.66052     0.00027
    3     0.08349     0.00017     5.78470
 ion   32
    1     6.63403     0.00464    -0.00103
    2     0.00404     6.65412     0.00023
    3    -0.00185    -0.01121     5.77561
 ion   33
    1     6.63433    -0.00454    -0.00062
    2    -0.00402     6.65546    -0.00050
    3    -0.00148     0.01109     5.77631
 ion   34
    1     6.68604     0.00004    -0.00029
    2    -0.00002     6.49317     0.00027
    3    -0.00011     0.00019     6.19673
 ion   35
    1     6.66120     0.00002     0.00005
    2    -0.00003     6.60296    -0.00228
    3     0.00019     0.01417     5.75677
 ion   36
    1     6.66144    -0.00006    -0.00031
    2    -0.00002     6.60433     0.00198
    3    -0.00012    -0.01429     5.75748
 ion   37
    1    -5.39676    -0.00003     0.00360
    2     0.00002    -1.10875    -0.00002
    3     0.00203    -0.00006    -2.82608
 ion   38
    1    -5.52418     0.00379     0.00046
    2     0.00560    -1.12656     0.00033
    3    -0.01151     0.00045    -2.88494
 ion   39
    1    -5.52454    -0.00382     0.00044
    2    -0.00558    -1.12783    -0.00033
    3    -0.01146    -0.00044    -2.88552
 ion   40
    1    -5.39579     0.00010    -0.00369
    2     0.00007    -1.10878    -0.00001
    3    -0.00244     0.00000    -2.82617
 ion   41
    1    -5.52328    -0.00384    -0.00042
    2    -0.00560    -1.12669     0.00034
    3     0.01116     0.00047    -2.88557
 ion   42
    1    -5.52347     0.00364    -0.00050
    2     0.00553    -1.12783    -0.00033
    3     0.01110    -0.00049    -2.88562
 ion   43
    1    -4.77613    -0.00010    -0.00001
    2    -0.00007    -1.06055    -0.00010
    3     0.00026    -0.00005    -3.42441
 ion   44
    1    -5.60438    -0.00004     0.00009
    2    -0.00000    -1.12696     0.00155
    3     0.00025    -0.00426    -2.87936
 ion   45
    1    -5.60462     0.00010     0.00011
    2     0.00008    -1.12820    -0.00155
    3     0.00030     0.00422    -2.87941
 ion   46
    1    -1.12152    -0.00006    -0.00003
    2    -0.00014    -5.52764     0.00005
    3    -0.00006     0.00031    -2.88599
 ion   47
    1    -1.12133     0.00001    -0.00002
    2     0.00002    -5.53719     0.00093
    3    -0.00002     0.00475    -2.89342
 ion   48
    1    -1.12133     0.00005    -0.00001
    2     0.00016    -5.53607    -0.00109
    3    -0.00004    -0.00505    -2.89349
 ion   49
    1    -1.10860    -0.00002    -0.08935
    2     0.00000    -5.47708     0.00006
    3     0.00098     0.00029    -2.89851
 ion   50
    1    -1.12619    -0.02000    -0.01021
    2     0.00034    -5.53607     0.00232
    3     0.00288     0.00701    -2.90339
 ion   51
    1    -1.12634     0.01997    -0.01019
    2    -0.00036    -5.53518    -0.00233
    3     0.00292    -0.00725    -2.90399
 ion   52
    1    -1.10980     0.00005     0.08933
    2     0.00010    -5.47728     0.00009
    3    -0.00101     0.00032    -2.89857
 ion   53
    1    -1.12743     0.01995     0.01015
    2    -0.00035    -5.53644     0.00231
    3    -0.00294     0.00697    -2.90394
 ion   54
    1    -1.12749    -0.02005     0.01019
    2     0.00023    -5.53532    -0.00240
    3    -0.00292    -0.00732    -2.90404
 ion   55
    1    -1.12079    -0.00000     0.00005
    2     0.00003    -5.54353     0.00568
    3     0.00008    -0.01623    -2.88536
 ion   56
    1    -1.12082     0.00004    -0.00003
    2     0.00013    -5.54245    -0.00566
    3    -0.00001     0.01659    -2.88543
 ion   57
    1    -1.12113    -0.00009     0.00001
    2    -0.00022    -5.53627    -0.00010
    3    -0.00001    -0.00030    -2.89366
 ion   58
    1    -1.09756     0.14884    -0.04409
    2    -0.01473    -5.55745     0.04177
    3     0.01214     0.03816    -2.88906
 ion   59
    1    -1.09765    -0.14890    -0.04409
    2     0.01473    -5.55657    -0.04170
    3     0.01215    -0.03787    -2.88968
 ion   60
    1    -1.12540    -0.00004    -0.00563
    2     0.00001    -5.52825    -0.00008
    3     0.00022    -0.00024    -2.90109
 ion   61
    1    -1.09884    -0.14892     0.04405
    2     0.01469    -5.55779     0.04172
    3    -0.01219     0.03816    -2.88967
 ion   62
    1    -1.09890     0.14878     0.04411
    2    -0.01489    -5.55676    -0.04168
    3    -0.01213    -0.03785    -2.88974
 ion   63
    1    -1.12652     0.00008     0.00560
    2     0.00018    -5.52842    -0.00009
    3    -0.00019    -0.00030    -2.90113
 ion   64
    1    -5.52529    -0.00164    -0.00063
    2    -0.00304    -1.12067     0.00075
    3    -0.00302     0.00180    -2.89242
 ion   65
    1    -5.52558     0.00166    -0.00061
    2     0.00303    -1.12192    -0.00072
    3    -0.00304    -0.00180    -2.89298
 ion   66
    1    -5.53300    -0.00005    -0.00019
    2    -0.00001    -1.12445     0.00004
    3    -0.00319     0.00002    -2.89376
 ion   67
    1    -5.52436     0.00162     0.00067
    2     0.00303    -1.12079     0.00076
    3     0.00327     0.00180    -2.89302
 ion   68
    1    -5.52450    -0.00174     0.00072
    2    -0.00313    -1.12193    -0.00076
    3     0.00332    -0.00179    -2.89308
 ion   69
    1    -5.53190     0.00014     0.00028
    2     0.00007    -1.12449    -0.00001
    3     0.00349     0.00002    -2.89384
 ion   70
    1    -5.62319    -0.00002    -0.00013
    2    -0.00000    -1.12768     0.00218
    3    -0.00023     0.01008    -2.88675
 ion   71
    1    -5.62333     0.00011    -0.00002
    2     0.00007    -1.12885    -0.00213
    3    -0.00030    -0.01002    -2.88680
 ion   72
    1    -5.56932    -0.00010    -0.00006
    2    -0.00009    -1.12485    -0.00001
    3    -0.00030    -0.00000    -2.89273
 ion   73
    1    -5.51433     0.00001     0.00006
    2    -0.00003    -1.12290     0.00026
    3     0.00023    -0.00075    -2.89711
 ion   74
    1    -5.51452     0.00007     0.00009
    2     0.00005    -1.12404    -0.00023
    3     0.00031     0.00076    -2.89719
 ion   75
    1    -5.52466    -0.00008     0.00010
    2    -0.00013    -1.12273    -0.00001
    3     0.00032     0.00001    -2.89514
 ion   76
    1    -5.51786     0.00482     0.00220
    2    -0.01231    -1.12304     0.00138
    3     0.01224     0.00553    -2.90129
 ion   77
    1    -5.51817    -0.00481     0.00222
    2     0.01231    -1.12429    -0.00136
    3     0.01228    -0.00549    -2.90187
 ion   78
    1    -5.53223    -0.00007     0.00073
    2    -0.00001    -1.12118     0.00001
    3     0.00258    -0.00002    -2.89889
 ion   79
    1    -5.51696    -0.00484    -0.00225
    2     0.01228    -1.12319     0.00140
    3    -0.01261     0.00554    -2.90191
 ion   80
    1    -5.51708     0.00468    -0.00224
    2    -0.01241    -1.12433    -0.00136
    3    -0.01263    -0.00552    -2.90196
 ion   81
    1    -5.53111     0.00010    -0.00076
    2     0.00008    -1.12120    -0.00002
    3    -0.00289    -0.00002    -2.89897
 ion   82
    1    -1.10704     0.00108    -0.00341
    2    -0.00317    -5.53180     0.00942
    3     0.00168    -0.01997    -2.90452
 ion   83
    1    -1.10716    -0.00111    -0.00341
    2     0.00312    -5.53083    -0.00953
    3     0.00168     0.01968    -2.90512
 ion   84
    1    -1.11726    -0.00001    -0.00123
    2     0.00000    -5.53430     0.00005
    3    -0.00081     0.00027    -2.89394
 ion   85
    1    -1.10826    -0.00111     0.00345
    2     0.00319    -5.53205     0.00940
    3    -0.00166    -0.01994    -2.90510
 ion   86
    1    -1.10830     0.00104     0.00342
    2    -0.00333    -5.53097    -0.00950
    3    -0.00168     0.01963    -2.90517
 ion   87
    1    -1.11843     0.00007     0.00120
    2     0.00015    -5.53444     0.00007
    3     0.00081     0.00030    -2.89400
 ion   88
    1    -1.14430     0.00000    -0.00005
    2    -0.00001    -5.43799     0.11340
    3    -0.00002    -0.02467    -2.89141
 ion   89
    1    -1.14434     0.00007    -0.00002
    2     0.00018    -5.43689    -0.11347
    3    -0.00002     0.02429    -2.89149
 ion   90
    1    -1.13235    -0.00008    -0.00002
    2    -0.00020    -5.52001     0.00008
    3    -0.00001     0.00028    -2.88578
 ion   91
    1    -1.10923    -0.00006     0.00006
    2     0.00000    -5.54532    -0.00011
    3     0.00105    -0.00025    -2.90423
 ion   92
    1    -1.11729     0.00188     0.00055
    2     0.00029    -5.53689    -0.00094
    3    -0.00152     0.00590    -2.89409
 ion   93
    1    -1.11740    -0.00195     0.00058
    2    -0.00031    -5.53598     0.00094
    3    -0.00154    -0.00562    -2.89470
 ion   94
    1    -1.11040     0.00005    -0.00004
    2     0.00019    -5.54543    -0.00009
    3    -0.00103    -0.00032    -2.90428
 ion   95
    1    -1.11852    -0.00195    -0.00061
    2    -0.00028    -5.53722    -0.00095
    3     0.00148     0.00588    -2.89466
 ion   96
    1    -1.11857     0.00182    -0.00057
    2     0.00012    -5.53615     0.00092
    3     0.00153    -0.00555    -2.89476
 ion   97
    1    -1.17676    -0.00012     0.00007
    2    -0.00013    -5.73222    -0.00002
    3    -0.00001    -0.00017    -2.85978
 ion   98
    1    -1.12959    -0.00003     0.00005
    2     0.00002    -5.54871    -0.00231
    3     0.00002     0.01437    -2.88464
 ion   99
    1    -1.12964     0.00002    -0.00002
    2     0.00018    -5.54766     0.00242
    3    -0.00001    -0.01404    -2.88471
 ion  100
    1    -5.51986    -0.00014    -0.00012
    2    -0.00010    -1.13127     0.00003
    3    -0.00035     0.00001    -2.89241
 ion  101
    1    -5.51875     0.00003    -0.00004
    2     0.00001    -1.12020     0.00008
    3    -0.00029     0.00258    -2.89446
 ion  102
    1    -5.51891     0.00016    -0.00006
    2     0.00010    -1.12133    -0.00009
    3    -0.00034    -0.00257    -2.89454
 ion  103
    1    -5.42887     0.00003    -0.01684
    2     0.00001    -1.13736     0.00001
    3    -0.15316     0.00003    -2.89831
 ion  104
    1    -5.52586    -0.00444    -0.00109
    2    -0.00109    -1.11447     0.00054
    3     0.00663     0.00114    -2.89498
 ion  105
    1    -5.52614     0.00450    -0.00114
    2     0.00109    -1.11572    -0.00055
    3     0.00659    -0.00119    -2.89554
 ion  106
    1    -5.42780     0.00009     0.01698
    2     0.00008    -1.13736     0.00002
    3     0.15348    -0.00000    -2.89840
 ion  107
    1    -5.52487     0.00443     0.00124
    2     0.00110    -1.11461     0.00056
    3    -0.00635     0.00116    -2.89558
 ion  108
    1    -5.52509    -0.00457     0.00126
    2    -0.00120    -1.11577    -0.00056
    3    -0.00630    -0.00116    -2.89564


--------------------------------------------------------------------------------------------------------


     LOOP+:  cpu time   1925.8315: real time   1987.5394
    4ORBIT:  cpu time      0.0000: real time      0.0000

 total amount of memory used by VASP MPI-rank0   266725. kBytes
=======================================================================

   base      :      30000. kBytes
   nonlr-proj:      19556. kBytes
   fftplans  :      10927. kBytes
   grid      :      23181. kBytes
   one-center:       1679. kBytes
   wavefun   :     181382. kBytes



 General timing and accounting informations for this job:
 ========================================================

                  Total CPU time used (sec):     1935.509
                            User time (sec):     1864.330
                          System time (sec):       71.179
                         Elapsed time (sec):     2007.073

                   Maximum memory used (kb):     1084600.
                   Average memory used (kb):          N/A

                          Minor page faults:      2757184
                          Major page faults:           14
                 Voluntary context switches:       127713
