 vasp.6.3.0 20Jan22 (build Mar 29 2022 16:24:06) complex

 executed on             Bridges2 date 2023.01.12  19:12:58
 running on   32 total cores
 distrk:  each k-point on    4 cores,    8 groups
 distr:  one band on NCORE=   1 cores,    4 groups


--------------------------------------------------------------------------------------------------------


 INCAR:
   ICHARG = 2
   LWAVE = .FALSE.
   LCHARG = .FALSE.
   LVTOT = .FALSE.
   NCORE = 1
   KPAR = 8
   EDIFF = 1E-7
   NELM = 80
   PREC = Normal
   LREAL = Auto
   NELMIN = 4
   ENCUT = 400.0 eV
   ISPIN = 1
   ISMEAR = 0
   SIGMA = 0.10
   NSW = 0
   LEPSILON = .TRUE.
   LPEAD = .TRUE.
   ISYM = 0

 POTCAR:    PAW_PBE Ti_pv 07Sep2000
 POTCAR:    PAW_PBE O 08Apr2002
 -----------------------------------------------------------------------------
|                                                                             |
|           W    W    AA    RRRRR   N    N  II  N    N   GGGG   !!!           |
|           W    W   A  A   R    R  NN   N  II  NN   N  G    G  !!!           |
|           W    W  A    A  R    R  N N  N  II  N N  N  G       !!!           |
|           W WW W  AAAAAA  RRRRR   N  N N  II  N  N N  G  GGG   !            |
|           WW  WW  A    A  R   R   N   NN  II  N   NN  G    G                |
|           W    W  A    A  R    R  N    N  II  N    N   GGGG   !!!           |
|                                                                             |
|     For optimal performance we recommend to set                             |
|       NCORE = 2 up to number-of-cores-per-socket                            |
|     NCORE specifies how many cores store one orbital (NPAR=cpu/NCORE).      |
|     This setting can greatly improve the performance of VASP for DFT.       |
|     The default, NCORE=1 might be grossly inefficient on modern             |
|     multi-core architectures or massively parallel machines. Do your        |
|     own testing! More info at https://www.vasp.at/wiki/index.php/NCORE      |
|     Unfortunately you need to use the default for GW and RPA                |
|     calculations (for HF NCORE is supported but not extensively tested      |
|     yet).                                                                   |
|                                                                             |
 -----------------------------------------------------------------------------

 POTCAR:    PAW_PBE Ti_pv 07Sep2000
   VRHFIN =Ti: d3 s1
   LEXCH  = PE
   EATOM  =  1042.5995 eV,   76.6289 Ry

   TITEL  = PAW_PBE Ti_pv 07Sep2000
   LULTRA =        F    use ultrasoft PP ?
   IUNSCR =        1    unscreen: 0-lin 1-nonlin 2-no
   RPACOR =    2.200    partial core radius
   POMASS =   47.880; ZVAL   =   10.000    mass and valenz
   RCORE  =    2.500    outmost cutoff radius
   RWIGS  =    2.500; RWIGS  =    1.323    wigner-seitz radius (au A)
   ENMAX  =  222.335; ENMIN  =  166.751 eV
   RCLOC  =    1.701    cutoff for local pot
   LCOR   =        T    correct aug charges
   LPAW   =        T    paw PP
   EAUG   =  482.848
   DEXC   =    0.000
   RMAX   =    2.564    core radius for proj-oper
   RAUG   =    1.300    factor for augmentation sphere
   RDEP   =    2.538    radius for radial grids
   RDEPT  =    1.952    core radius for aug-charge

   Atomic configuration
    8 entries
     n  l   j            E        occ.
     1  0  0.50     -4865.3608   2.0000
     2  0  0.50      -533.1368   2.0000
     2  1  1.50      -440.5031   6.0000
     3  0  0.50       -59.3186   2.0000
     3  1  1.50       -35.7012   6.0000
     3  2  2.50        -1.9157   3.0000
     4  0  0.50        -3.7291   1.0000
     4  3  2.50        -1.3606   0.0000
   Description
     l       E           TYP  RCUT    TYP  RCUT
     1    -35.7012140     23  2.300
     1     -1.3605826     23  2.300
     2     -1.9156996     23  2.500
     2     -0.4063033     23  2.500
     0     -3.7290856     23  2.500
     0     20.4087390     23  2.500
  local pseudopotential read in
  partial core-charges read in
  partial kinetic energy density read in
  atomic valenz-charges read in
  non local Contribution for L=           1  read in
    real space projection operators read in
  non local Contribution for L=           1  read in
    real space projection operators read in
  non local Contribution for L=           2  read in
    real space projection operators read in
  non local Contribution for L=           2  read in
    real space projection operators read in
  non local Contribution for L=           0  read in
    real space projection operators read in
  non local Contribution for L=           0  read in
    real space projection operators read in
    PAW grid and wavefunctions read in

   number of l-projection  operators is LMAX  =           6
   number of lm-projection operators is LMMAX =          18

 POTCAR:    PAW_PBE O 08Apr2002
   VRHFIN =O: s2p4
   LEXCH  = PE
   EATOM  =   432.3788 eV,   31.7789 Ry

   TITEL  = PAW_PBE O 08Apr2002
   LULTRA =        F    use ultrasoft PP ?
   IUNSCR =        1    unscreen: 0-lin 1-nonlin 2-no
   RPACOR =    1.200    partial core radius
   POMASS =   16.000; ZVAL   =    6.000    mass and valenz
   RCORE  =    1.520    outmost cutoff radius
   RWIGS  =    1.550; RWIGS  =    0.820    wigner-seitz radius (au A)
   ENMAX  =  400.000; ENMIN  =  300.000 eV
   ICORE  =        2    local potential
   LCOR   =        T    correct aug charges
   LPAW   =        T    paw PP
   EAUG   =  605.392
   DEXC   =    0.000
   RMAX   =    1.553    core radius for proj-oper
   RAUG   =    1.300    factor for augmentation sphere
   RDEP   =    1.550    radius for radial grids
   RDEPT  =    1.329    core radius for aug-charge

   Atomic configuration
    4 entries
     n  l   j            E        occ.
     1  0  0.50      -514.6923   2.0000
     2  0  0.50       -23.9615   2.0000
     2  1  0.50        -9.0305   4.0000
     3  2  1.50        -9.5241   0.0000
   Description
     l       E           TYP  RCUT    TYP  RCUT
     0    -23.9615318     23  1.200
     0     -9.5240782     23  1.200
     1     -9.0304911     23  1.520
     1      8.1634956     23  1.520
     2     -9.5240782      7  1.500
  local pseudopotential read in
  partial core-charges read in
  partial kinetic energy density read in
  kinetic energy density of atom read in
  atomic valenz-charges read in
  non local Contribution for L=           0  read in
    real space projection operators read in
  non local Contribution for L=           0  read in
    real space projection operators read in
  non local Contribution for L=           1  read in
    real space projection operators read in
  non local Contribution for L=           1  read in
    real space projection operators read in
    PAW grid and wavefunctions read in

   number of l-projection  operators is LMAX  =           4
   number of lm-projection operators is LMMAX =           8

 Optimization of the real space projectors (new method)

 maximal supplied QI-value         = 15.12
 optimisation between [QCUT,QGAM] = [ 10.13, 20.41] = [ 28.73,116.64] Ry
 Optimized for a Real-space Cutoff    1.51 Angstroem

   l    n(q)    QCUT    max X(q) W(low)/X(q) W(high)/X(q)  e(spline)
   1      9    10.129     4.216    0.12E-04    0.72E-04    0.60E-07
   1      9    10.129     5.422    0.84E-04    0.21E-03    0.15E-06
   2      8    10.129    72.084    0.33E-03    0.35E-04    0.17E-06
   2      8    10.129    65.965    0.33E-03    0.37E-04    0.17E-06
   0      9    10.129    41.531    0.17E-03    0.19E-03    0.81E-07
   0      9    10.129    16.290    0.12E-03    0.14E-03    0.64E-07
 Optimization of the real space projectors (new method)

 maximal supplied QI-value         = 24.76
 optimisation between [QCUT,QGAM] = [ 10.15, 20.30] = [ 28.85,115.39] Ry
 Optimized for a Real-space Cutoff    1.38 Angstroem

   l    n(q)    QCUT    max X(q) W(low)/X(q) W(high)/X(q)  e(spline)
   0      8    10.150    20.381    0.22E-03    0.32E-03    0.29E-06
   0      8    10.150    15.268    0.23E-03    0.35E-03    0.30E-06
   1      8    10.150     5.964    0.46E-03    0.53E-03    0.21E-06
   1      8    10.150     5.382    0.38E-03    0.45E-03    0.19E-06
  PAW_PBE Ti_pv 07Sep2000               :
 energy of atom  1       EATOM=-1042.5995
 kinetic energy error for atom=    0.0037 (will be added to EATOM!!)
  PAW_PBE O 08Apr2002                   :
 energy of atom  2       EATOM= -432.3788
 kinetic energy error for atom=    0.1156 (will be added to EATOM!!)


 POSCAR: Ti4 O8
  positions in cartesian coordinates
  No initial velocities read in
 exchange correlation table for  LEXCH =        8
   RHO(1)=    0.500       N(1)  =     2000
   RHO(2)=  100.500       N(2)  =     4000



--------------------------------------------------------------------------------------------------------


 ion  position               nearest neighbor table
   1  0.167  0.167  0.500-  56 1.94  55 1.94  40 1.94  37 1.94 100 2.00  46 2.00  31 3.06  28 3.06
                            11 3.06  10 3.06
   2  0.167  0.500  0.500-  56 1.94  41 1.94  38 1.94  57 1.94 101 2.00  47 2.00  11 3.06  32 3.06
                            29 3.06  12 3.06
   3  0.167  0.833  0.500-  57 1.94  42 1.94  39 1.94  55 1.94 102 2.00  48 2.00  12 3.06  33 3.06
                            30 3.06  10 3.06
   4  0.500  0.167  0.500-  40 1.94  59 1.94  58 1.94  43 1.96 103 2.00  49 2.00  31 3.06  14 3.06
                            13 3.06  34 3.06
   5  0.500  0.500  0.500-  59 1.94  41 1.94  60 1.94  44 1.94 104 2.00  50 2.00  32 3.06  14 3.06
                            35 3.06  15 3.06
   6  0.500  0.833  0.500-  60 1.94  42 1.94  58 1.94  45 1.94 105 2.00  51 2.00  15 3.06  33 3.06
                            13 3.06  36 3.06
   7  0.833  0.167  0.500-  62 1.94  61 1.94  37 1.94  43 1.96 106 2.00  52 2.00  34 3.06  17 3.06
                            16 3.06  28 3.06
   8  0.833  0.500  0.500-  44 1.94  62 1.94  63 1.94  38 1.94 107 2.00  53 2.00  35 3.06  17 3.06
                            29 3.06  18 3.06
   9  0.833  0.833  0.500-  63 1.94  45 1.94  61 1.94  39 1.94 108 2.00  54 2.00  36 3.06  18 3.06
                            30 3.06  16 3.06
  10  0.167  0.000  0.750-  67 1.94  64 1.94  46 1.94  48 1.94  73 2.00  55 2.00  22 3.06  19 3.06
                             1 3.06   3 3.06
  11  0.167  0.333  0.750-  47 1.94  46 1.94  68 1.94  65 1.94  74 2.00  56 2.00   2 3.06  23 3.06
                            20 3.06   1 3.06
  12  0.167  0.667  0.750-  48 1.94  69 1.94  66 1.94  47 1.94  75 2.00  57 2.00   3 3.06  24 3.06
                            21 3.06   2 3.06
  13  0.500  0.000  0.750-  67 1.94  49 1.94  51 1.94  70 1.94  76 2.00  58 2.00  22 3.06   4 3.06
                            25 3.06   6 3.06
  14  0.500  0.333  0.750-  50 1.94  68 1.94  49 1.94  71 1.94  77 2.00  59 2.00  23 3.06   5 3.06
                             4 3.06  26 3.06
  15  0.500  0.667  0.750-  51 1.94  69 1.94  50 1.94  72 1.94  78 2.00  60 2.00   6 3.06  24 3.06
                            27 3.06   5 3.06
  16  0.833  0.000  0.750-  70 1.94  52 1.94  64 1.94  54 1.94  79 2.00  61 2.00  25 3.06   7 3.06
                            19 3.06   9 3.06
  17  0.833  0.333  0.750-  71 1.94  53 1.94  52 1.94  65 1.94  80 2.00  62 2.00  26 3.06   8 3.06
                             7 3.06  20 3.06
  18  0.833  0.667  0.750-  54 1.94  72 1.94  66 1.94  53 1.94  81 2.00  63 2.00  27 3.06   9 3.06
                            21 3.06   8 3.06
  19  0.000  0.000  0.000-  73 1.94  91 1.94  79 1.94  93 1.94  82 2.00  64 2.00  10 3.06  28 3.06
                            16 3.06  30 3.06
  20  0.000  0.333  0.000-  92 1.94  74 1.94  91 1.94  80 1.94  83 2.00  65 2.00  29 3.06  11 3.06
                            28 3.06  17 3.06
  21  0.000  0.667  0.000-  93 1.94  75 1.94  81 1.94  92 1.94  84 2.00  66 2.00  30 3.06  12 3.06
                            18 3.06  29 3.06
  22  0.333  0.000  0.000-  76 1.94  73 1.94  94 1.94  96 1.94  85 2.00  67 2.00  13 3.06  10 3.06
                            31 3.06  33 3.06
  23  0.333  0.333  0.000-  77 1.94  95 1.94  74 1.94  94 1.94  86 2.00  68 2.00  14 3.06  32 3.06
                            11 3.06  31 3.06
  24  0.333  0.667  0.000-  96 1.94  78 1.94  75 1.94  95 1.94  87 2.00  69 2.00  33 3.06  15 3.06
                            12 3.06  32 3.06
  25  0.667  0.000  0.000-  79 1.94  97 1.94  76 1.94  99 1.94  88 2.00  70 2.00  16 3.06  34 3.06
                            13 3.06  36 3.06
  26  0.667  0.333  0.000-  80 1.94  98 1.94  97 1.94  77 1.94  89 2.00  71 2.00  17 3.06  35 3.06
                            34 3.06  14 3.06
  27  0.667  0.667  0.000-  81 1.94  99 1.94  78 1.94  98 1.94  90 2.00  72 2.00  18 3.06  36 3.06
                            15 3.06  35 3.06
  28  0.000  0.167  0.250-  83 1.94  82 1.94 100 1.94 106 1.94  37 2.00  91 2.00   1 3.06  20 3.06
                            19 3.06   7 3.06
  29  0.000  0.500  0.250-  83 1.94 101 1.94  84 1.94 107 1.94  38 2.00  92 2.00  20 3.06   2 3.06
                             8 3.06  21 3.06
  30  0.000  0.833  0.250-  84 1.94 102 1.94  82 1.94 108 1.94  39 2.00  93 2.00  21 3.06   3 3.06
                             9 3.06  19 3.06
  31  0.333  0.167  0.250- 103 1.94  86 1.94  85 1.94 100 1.94  40 2.00  94 2.00   4 3.06   1 3.06
                            23 3.06  22 3.06
  32  0.333  0.500  0.250-  86 1.94 104 1.94 101 1.94  87 1.94  41 2.00  95 2.00   5 3.06  23 3.06
                             2 3.06  24 3.06
  33  0.333  0.833  0.250-  87 1.94 105 1.94 102 1.94  85 1.94  42 2.00  96 2.00  24 3.06   6 3.06
                             3 3.06  22 3.06
  34  0.667  0.167  0.250-  43 1.90 106 1.94  89 1.94  88 1.94 103 1.94  97 2.00   7 3.06  26 3.06
                            25 3.06   4 3.06
  35  0.667  0.500  0.250- 107 1.94  89 1.94  90 1.94 104 1.94  44 2.00  98 2.00   8 3.06  26 3.06
                             5 3.06  27 3.06
  36  0.667  0.833  0.250-  90 1.94 108 1.94  88 1.94 105 1.94  45 2.00  99 2.00   9 3.06  27 3.06
                            25 3.06   6 3.06
  37  0.000  0.167  0.458-   1 1.94   7 1.94  28 2.00
  38  0.000  0.500  0.458-   2 1.94   8 1.94  29 2.00
  39  0.000  0.833  0.458-   3 1.94   9 1.94  30 2.00
  40  0.333  0.167  0.458-   4 1.94   1 1.94  31 2.00
  41  0.333  0.500  0.458-   5 1.94   2 1.94  32 2.00
  42  0.333  0.833  0.458-   6 1.94   3 1.94  33 2.00
  43  0.667  0.167  0.447-  34 1.90   7 1.96   4 1.96
  44  0.667  0.500  0.458-   8 1.94   5 1.94  35 2.00
  45  0.667  0.833  0.458-   9 1.94   6 1.94  36 2.00
  46  0.167  0.167  0.708-  11 1.94  10 1.94   1 2.00
  47  0.167  0.500  0.708-  11 1.94  12 1.94   2 2.00
  48  0.167  0.833  0.708-  12 1.94  10 1.94   3 2.00
  49  0.500  0.167  0.708-  14 1.94  13 1.94   4 2.00
  50  0.500  0.500  0.708-  14 1.94  15 1.94   5 2.00
  51  0.500  0.833  0.708-  15 1.94  13 1.94   6 2.00
  52  0.833  0.167  0.708-  17 1.94  16 1.94   7 2.00
  53  0.833  0.500  0.708-  17 1.94  18 1.94   8 2.00
  54  0.833  0.833  0.708-  18 1.94  16 1.94   9 2.00
  55  0.167  0.000  0.542-   1 1.94   3 1.94  10 2.00
  56  0.167  0.333  0.542-   2 1.94   1 1.94  11 2.00
  57  0.167  0.667  0.542-   3 1.94   2 1.94  12 2.00
  58  0.500  0.000  0.542-   4 1.94   6 1.94  13 2.00
  59  0.500  0.333  0.542-   5 1.94   4 1.94  14 2.00
  60  0.500  0.667  0.542-   6 1.94   5 1.94  15 2.00
  61  0.833  0.000  0.542-   7 1.94   9 1.94  16 2.00
  62  0.833  0.333  0.542-   8 1.94   7 1.94  17 2.00
  63  0.833  0.667  0.542-   9 1.94   8 1.94  18 2.00
  64  0.000  0.000  0.792-  10 1.94  16 1.94  19 2.00
  65  0.000  0.333  0.792-  11 1.94  17 1.94  20 2.00
  66  0.000  0.667  0.792-  12 1.94  18 1.94  21 2.00
  67  0.333  0.000  0.792-  13 1.94  10 1.94  22 2.00
  68  0.333  0.333  0.792-  14 1.94  11 1.94  23 2.00
  69  0.333  0.667  0.792-  15 1.94  12 1.94  24 2.00
  70  0.667  0.000  0.792-  16 1.94  13 1.94  25 2.00
  71  0.667  0.333  0.792-  17 1.94  14 1.94  26 2.00
  72  0.667  0.667  0.792-  18 1.94  15 1.94  27 2.00
  73  0.167  0.000  0.958-  22 1.94  19 1.94  10 2.00
  74  0.167  0.333  0.958-  23 1.94  20 1.94  11 2.00
  75  0.167  0.667  0.958-  24 1.94  21 1.94  12 2.00
  76  0.500  0.000  0.958-  22 1.94  25 1.94  13 2.00
  77  0.500  0.333  0.958-  23 1.94  26 1.94  14 2.00
  78  0.500  0.667  0.958-  24 1.94  27 1.94  15 2.00
  79  0.833  0.000  0.958-  25 1.94  19 1.94  16 2.00
  80  0.833  0.333  0.958-  26 1.94  20 1.94  17 2.00
  81  0.833  0.667  0.958-  27 1.94  21 1.94  18 2.00
  82  0.000  0.000  0.208-  28 1.94  30 1.94  19 2.00
  83  0.000  0.333  0.208-  29 1.94  28 1.94  20 2.00
  84  0.000  0.667  0.208-  30 1.94  29 1.94  21 2.00
  85  0.333  0.000  0.208-  31 1.94  33 1.94  22 2.00
  86  0.333  0.333  0.208-  32 1.94  31 1.94  23 2.00
  87  0.333  0.667  0.208-  33 1.94  32 1.94  24 2.00
  88  0.667  0.000  0.208-  34 1.94  36 1.94  25 2.00
  89  0.667  0.333  0.208-  35 1.94  34 1.94  26 2.00
  90  0.667  0.667  0.208-  36 1.94  35 1.94  27 2.00
  91  0.000  0.167  0.042-  20 1.94  19 1.94  28 2.00
  92  0.000  0.500  0.042-  20 1.94  21 1.94  29 2.00
  93  0.000  0.833  0.042-  21 1.94  19 1.94  30 2.00
  94  0.333  0.167  0.042-  23 1.94  22 1.94  31 2.00
  95  0.333  0.500  0.042-  23 1.94  24 1.94  32 2.00
  96  0.333  0.833  0.042-  24 1.94  22 1.94  33 2.00
  97  0.667  0.167  0.042-  26 1.94  25 1.94  34 2.00
  98  0.667  0.500  0.042-  26 1.94  27 1.94  35 2.00
  99  0.667  0.833  0.042-  27 1.94  25 1.94  36 2.00
 100  0.167  0.167  0.292-  31 1.94  28 1.94   1 2.00
 101  0.167  0.500  0.292-  32 1.94  29 1.94   2 2.00
 102  0.167  0.833  0.292-  33 1.94  30 1.94   3 2.00
 103  0.500  0.167  0.292-  31 1.94  34 1.94   4 2.00
 104  0.500  0.500  0.292-  32 1.94  35 1.94   5 2.00
 105  0.500  0.833  0.292-  33 1.94  36 1.94   6 2.00
 106  0.833  0.167  0.292-  34 1.94  28 1.94   7 2.00
 107  0.833  0.500  0.292-  35 1.94  29 1.94   8 2.00
 108  0.833  0.833  0.292-  36 1.94  30 1.94   9 2.00


IMPORTANT INFORMATION: All symmetrisations will be switched off!
NOSYMM: (Re-)initialisation of all symmetry stuff for point group C_1.


----------------------------------------------------------------------------------------

                                     Primitive cell

  volume of cell :    1243.1447

  direct lattice vectors                    reciprocal lattice vectors
    11.376843452  0.000000000  0.000000000     0.087897843  0.000000000  0.000000000
     0.000000000 11.376843452  0.000000000     0.000000000  0.087897843  0.000000000
     0.000000000  0.000000000  9.604574204     0.000000000  0.000000000  0.104117057

  length of vectors
    11.376843452 11.376843452  9.604574204     0.087897843  0.087897843  0.104117057

  position of ions in fractional coordinates (direct lattice)
     0.166666672  0.166666672  0.500000000
     0.166666672  0.500000000  0.500000000
     0.166666672  0.833333313  0.500000000
     0.500000000  0.166666672  0.500000000
     0.500000000  0.500000000  0.500000000
     0.500000000  0.833333313  0.500000000
     0.833333313  0.166666672  0.500000000
     0.833333313  0.500000000  0.500000000
     0.833333313  0.833333313  0.500000000
     0.166666672  0.000000000  0.750000000
     0.166666672  0.333333343  0.750000000
     0.166666672  0.666666687  0.750000000
     0.500000000  0.000000000  0.750000000
     0.500000000  0.333333343  0.750000000
     0.500000000  0.666666687  0.750000000
     0.833333313  0.000000000  0.750000000
     0.833333313  0.333333343  0.750000000
     0.833333313  0.666666687  0.750000000
     0.000000000  0.000000000  0.000000000
     0.000000000  0.333333343  0.000000000
     0.000000000  0.666666687  0.000000000
     0.333333343  0.000000000  0.000000000
     0.333333343  0.333333343  0.000000000
     0.333333343  0.666666687  0.000000000
     0.666666687  0.000000000  0.000000000
     0.666666687  0.333333343  0.000000000
     0.666666687  0.666666687  0.000000000
     0.000000000  0.166666672  0.250000000
     0.000000000  0.500000000  0.250000000
     0.000000000  0.833333313  0.250000000
     0.333333343  0.166666672  0.250000000
     0.333333343  0.500000000  0.250000000
     0.333333343  0.833333313  0.250000000
     0.666666687  0.166666672  0.250000000
     0.666666687  0.500000000  0.250000000
     0.666666687  0.833333313  0.250000000
     0.000000000  0.166666672  0.457898587
     0.000000000  0.500000000  0.457898587
     0.000000000  0.833333313  0.457898587
     0.333333343  0.166666672  0.457898587
     0.333333343  0.500000000  0.457898587
     0.333333343  0.833333313  0.457898587
     0.666666687  0.166666672  0.447486881
     0.666666687  0.500000000  0.457898587
     0.666666687  0.833333313  0.457898587
     0.166666672  0.166666672  0.707898617
     0.166666672  0.500000000  0.707898617
     0.166666672  0.833333313  0.707898617
     0.500000000  0.166666672  0.707898617
     0.500000000  0.500000000  0.707898617
     0.500000000  0.833333313  0.707898617
     0.833333313  0.166666672  0.707898617
     0.833333313  0.500000000  0.707898617
     0.833333313  0.833333313  0.707898617
     0.166666672  0.000000000  0.542101383
     0.166666672  0.333333343  0.542101383
     0.166666672  0.666666687  0.542101383
     0.500000000  0.000000000  0.542101383
     0.500000000  0.333333343  0.542101383
     0.500000000  0.666666687  0.542101383
     0.833333313  0.000000000  0.542101383
     0.833333313  0.333333343  0.542101383
     0.833333313  0.666666687  0.542101383
     0.000000000  0.000000000  0.792101383
     0.000000000  0.333333343  0.792101383
     0.000000000  0.666666687  0.792101383
     0.333333343  0.000000000  0.792101383
     0.333333343  0.333333343  0.792101383
     0.333333343  0.666666687  0.792101383
     0.666666687  0.000000000  0.792101383
     0.666666687  0.333333343  0.792101383
     0.666666687  0.666666687  0.792101383
     0.166666672  0.000000000  0.957898617
     0.166666672  0.333333343  0.957898617
     0.166666672  0.666666687  0.957898617
     0.500000000  0.000000000  0.957898617
     0.500000000  0.333333343  0.957898617
     0.500000000  0.666666687  0.957898617
     0.833333313  0.000000000  0.957898617
     0.833333313  0.333333343  0.957898617
     0.833333313  0.666666687  0.957898617
     0.000000000  0.000000000  0.207898602
     0.000000000  0.333333343  0.207898602
     0.000000000  0.666666687  0.207898602
     0.333333343  0.000000000  0.207898602
     0.333333343  0.333333343  0.207898602
     0.333333343  0.666666687  0.207898602
     0.666666687  0.000000000  0.207898602
     0.666666687  0.333333343  0.207898602
     0.666666687  0.666666687  0.207898602
     0.000000000  0.166666672  0.042101406
     0.000000000  0.500000000  0.042101406
     0.000000000  0.833333313  0.042101406
     0.333333343  0.166666672  0.042101406
     0.333333343  0.500000000  0.042101406
     0.333333343  0.833333313  0.042101406
     0.666666687  0.166666672  0.042101406
     0.666666687  0.500000000  0.042101406
     0.666666687  0.833333313  0.042101406
     0.166666672  0.166666672  0.292101413
     0.166666672  0.500000000  0.292101413
     0.166666672  0.833333313  0.292101413
     0.500000000  0.166666672  0.292101413
     0.500000000  0.500000000  0.292101413
     0.500000000  0.833333313  0.292101413
     0.833333313  0.166666672  0.292101413
     0.833333313  0.500000000  0.292101413
     0.833333313  0.833333313  0.292101413

  ion indices of the primitive-cell ions
   primitive index   ion index
                 1           1
                 2           2
                 3           3
                 4           4
                 5           5
                 6           6
                 7           7
                 8           8
                 9           9
                10          10
                11          11
                12          12
                13          13
                14          14
                15          15
                16          16
                17          17
                18          18
                19          19
                20          20
                21          21
                22          22
                23          23
                24          24
                25          25
                26          26
                27          27
                28          28
                29          29
                30          30
                31          31
                32          32
                33          33
                34          34
                35          35
                36          36
                37          37
                38          38
                39          39
                40          40
                41          41
                42          42
                43          43
                44          44
                45          45
                46          46
                47          47
                48          48
                49          49
                50          50
                51          51
                52          52
                53          53
                54          54
                55          55
                56          56
                57          57
                58          58
                59          59
                60          60
                61          61
                62          62
                63          63
                64          64
                65          65
                66          66
                67          67
                68          68
                69          69
                70          70
                71          71
                72          72
                73          73
                74          74
                75          75
                76          76
                77          77
                78          78
                79          79
                80          80
                81          81
                82          82
                83          83
                84          84
                85          85
                86          86
                87          87
                88          88
                89          89
                90          90
                91          91
                92          92
                93          93
                94          94
                95          95
                96          96
                97          97
                98          98
                99          99
               100         100
               101         101
               102         102
               103         103
               104         104
               105         105
               106         106
               107         107
               108         108

----------------------------------------------------------------------------------------



 KPOINTS: K-Points

Automatic generation of k-mesh.
 Grid dimensions read from file:
 generate k-points for:    2    2    2

 Generating k-lattice:

  Cartesian coordinates                     Fractional coordinates (reciprocal lattice)
     0.043948922  0.000000000  0.000000000     0.500000000  0.000000000  0.000000000
     0.000000000  0.043948922  0.000000000     0.000000000  0.500000000  0.000000000
     0.000000000  0.000000000  0.052058529     0.000000000  0.000000000  0.500000000

  Length of vectors
     0.043948922  0.043948922  0.052058529

  Shift w.r.t. Gamma in fractional coordinates (k-lattice)
     0.500000000  0.500000000  0.500000000


 Subroutine IBZKPT returns following result:
 ===========================================

 Found      4 irreducible k-points:

 Following reciprocal coordinates:
            Coordinates               Weight
  0.250000  0.250000  0.250000      2.000000
 -0.250000  0.250000  0.250000      2.000000
 -0.250000 -0.250000  0.250000      2.000000
  0.250000 -0.250000  0.250000      2.000000

 Following cartesian coordinates:
            Coordinates               Weight
  0.021974  0.021974  0.026029      2.000000
 -0.021974  0.021974  0.026029      2.000000
 -0.021974 -0.021974  0.026029      2.000000
  0.021974 -0.021974  0.026029      2.000000


 Subroutine IBZKPT_HF returns following result:
 ==============================================

 Found      8 k-points in 1st BZ
 the following      8 k-points will be used (e.g. in the exchange kernel)
 Following reciprocal coordinates:   # in IRBZ
  0.250000  0.250000  0.250000    0.12500000   1 t-inv F
 -0.250000  0.250000  0.250000    0.12500000   2 t-inv F
 -0.250000 -0.250000  0.250000    0.12500000   3 t-inv F
  0.250000 -0.250000  0.250000    0.12500000   4 t-inv F
 -0.250000 -0.250000 -0.250000    0.12500000   1 t-inv T
  0.250000 -0.250000 -0.250000    0.12500000   2 t-inv T
  0.250000  0.250000 -0.250000    0.12500000   3 t-inv T
 -0.250000  0.250000 -0.250000    0.12500000   4 t-inv T


--------------------------------------------------------------------------------------------------------




 Dimension of arrays:
   k-points           NKPTS =      4   k-points in BZ     NKDIM =      4   number of bands    NBANDS=    476
   number of dos      NEDOS =    301   number of ions     NIONS =    108
   non local maximal  LDIM  =      6   non local SUM 2l+1 LMDIM =     18
   total plane-waves  NPLWV = 150528
   max r-space proj   IRMAX =   1791   max aug-charges    IRDMAX=   4900
   dimension x,y,z NGX =    56 NGY =   56 NGZ =   48
   dimension x,y,z NGXF=   112 NGYF=  112 NGZF=   96
   support grid    NGXF=   112 NGYF=  112 NGZF=   96
   ions per type =              36  72
   NGX,Y,Z   is equivalent  to a cutoff of   8.18,  8.18,  8.31 a.u.
   NGXF,Y,Z  is equivalent  to a cutoff of  16.37, 16.37, 16.62 a.u.

 SYSTEM =  unknown system
 POSCAR =  Ti4 O8

 Startparameter for this run:
   NWRITE =      2    write-flag & timer
   PREC   = normal    normal or accurate (medium, high low for compatibility)
   ISTART =      0    job   : 0-new  1-cont  2-samecut
   ICHARG =      2    charge: 1-file 2-atom 10-const
   ISPIN  =      1    spin polarized calculation?
   LNONCOLLINEAR =      F non collinear calculations
   LSORBIT =      F    spin-orbit coupling
   INIWAV =      1    electr: 0-lowe 1-rand  2-diag
   LASPH  =      F    aspherical Exc in radial PAW
 Electronic Relaxation 1
   ENCUT  =  400.0 eV  29.40 Ry    5.42 a.u.  18.55 18.55 15.66*2*pi/ulx,y,z
   ENINI  =  400.0     initial cutoff
   ENAUG  =  605.4 eV  augmentation charge cutoff
   NELM   =     80;   NELMIN=  4; NELMDL= -5     # of ELM steps
   EDIFF  = 0.1E-06   stopping-criterion for ELM
   LREAL  =      T    real-space projection
   NLSPLINE    = F    spline interpolate recip. space projectors
   LCOMPAT=      F    compatible to vasp.4.4
   GGA_COMPAT  = T    GGA compatible to vasp.4.4-vasp.4.6
   LMAXPAW     = -100 max onsite density
   LMAXMIX     =    2 max onsite mixed and CHGCAR
   VOSKOWN=      0    Vosko Wilk Nusair interpolation
   ROPT   =   -0.00050  -0.00050
 Ionic relaxation
   EDIFFG = 0.1E-05   stopping-criterion for IOM
   NSW    =      0    number of steps for IOM
   NBLOCK =      1;   KBLOCK =      1    inner block; outer block
   IBRION =     -1    ionic relax: 0-MD 1-quasi-New 2-CG
   NFREE  =      0    steps in history (QN), initial steepest desc. (CG)
   ISIF   =      2    stress and relaxation
   IWAVPR =     10    prediction:  0-non 1-charg 2-wave 3-comb
   ISYM   =      0    0-nonsym 1-usesym 2-fastsym
   LCORR  =      T    Harris-Foulkes like correction to forces

   POTIM  = 0.5000    time-step for ionic-motion
   TEIN   =    0.0    initial temperature
   TEBEG  =    0.0;   TEEND  =   0.0 temperature during run
   SMASS  =  -3.00    Nose mass-parameter (am)
   estimated Nose-frequenzy (Omega)   =  0.10E-29 period in steps = 0.13E+47 mass=  -0.296E-26a.u.
   SCALEE = 1.0000    scale energy and forces
   NPACO  =    256;   APACO  = 10.0  distance and # of slots for P.C.
   PSTRESS=    0.0 pullay stress

  Mass of Ions in am
   POMASS =  47.88 16.00
  Ionic Valenz
   ZVAL   =  10.00  6.00
  Atomic Wigner-Seitz radii
   RWIGS  =  -1.00 -1.00
  virtual crystal weights
   VCA    =   1.00  1.00
   NELECT =     792.0000    total number of electrons
   NUPDOWN=      -1.0000    fix difference up-down

 DOS related values:
   EMIN   =  10.00;   EMAX   =-10.00  energy-range for DOS
   EFERMI =   0.00
   ISMEAR =     0;   SIGMA  =   0.10  broadening in eV -4-tet -1-fermi 0-gaus

 Electronic relaxation 2 (details)
   IALGO  =     38    algorithm
   LDIAG  =      T    sub-space diagonalisation (order eigenvalues)
   LSUBROT=      F    optimize rotation matrix (better conditioning)
   TURBO    =      0    0=normal 1=particle mesh
   IRESTART =      0    0=no restart 2=restart with 2 vectors
   NREBOOT  =      0    no. of reboots
   NMIN     =      0    reboot dimension
   EREF     =   0.00    reference energy to select bands
   IMIX   =      4    mixing-type and parameters
     AMIX     =   0.40;   BMIX     =  1.00
     AMIX_MAG =   1.60;   BMIX_MAG =  1.00
     AMIN     =   0.10
     WC   =   100.;   INIMIX=   1;  MIXPRE=   1;  MAXMIX= -45

 Intra band minimization:
   WEIMIN = 0.0000     energy-eigenvalue tresh-hold
   EBREAK =  0.53E-10  absolut break condition
   DEPER  =   0.30     relativ break condition

   TIME   =   0.40     timestep for ELM

  volume/ion in A,a.u.               =      11.51        77.68
  Fermi-wavevector in a.u.,A,eV,Ry     =   1.408670  2.662001 26.998745  1.984352
  Thomas-Fermi vector in A             =   2.530804

 Write flags
   LWAVE        =      F    write WAVECAR
   LDOWNSAMPLE  =      F    k-point downsampling of WAVECAR
   LCHARG       =      F    write CHGCAR
   LVTOT        =      F    write LOCPOT, total local potential
   LVHAR        =      F    write LOCPOT, Hartree potential only
   LELF         =      F    write electronic localiz. function (ELF)
   LORBIT       =      0    0 simple, 1 ext, 2 COOP (PROOUT), +10 PAW based schemes


 Dipole corrections
   LMONO  =      F    monopole corrections only (constant potential shift)
   LDIPOL =      F    correct potential (dipole corrections)
   IDIPOL =      0    1-x, 2-y, 3-z, 4-all directions
   EPSILON=  1.0000000 bulk dielectric constant

 Exchange correlation treatment:
   GGA     =    --    GGA type
   LEXCH   =     8    internal setting for exchange type
   LIBXC   =     F    Libxc
   VOSKOWN =     0    Vosko Wilk Nusair interpolation
   LHFCALC =     F    Hartree Fock is set to
   LHFONE  =     F    Hartree Fock one center treatment
   AEXX    =    0.0000 exact exchange contribution

 Linear response parameters
   LEPSILON=     T    determine dielectric tensor
   LRPA    =     F    only Hartree local field effects (RPA)
   LNABLA  =     F    use nabla operator in PAW spheres
   LVEL    =     F    velocity operator in full k-point grid
   CSHIFT  =0.1000    complex shift for real part using Kramers Kronig
   OMEGAMAX=  -1.0    maximum frequency
   DEG_THRESHOLD= 0.2000000E-02 threshold for treating states as degnerate
   RTIME   =   -0.100 relaxation time in fs
  (WPLASMAI=    0.000 imaginary part of plasma frequency in eV, 0.658/RTIME)
   DFIELD  = 0.0000000 0.0000000 0.0000000 field for delta impulse in time

  Optional k-point grid parameters
   LKPOINTS_OPT  =     F    use optional k-point grid
   KPOINTS_OPT_MODE=     1    mode for optional k-point grid

 Orbital magnetization related:
   ORBITALMAG=     F  switch on orbital magnetization
   LCHIMAG   =     F  perturbation theory with respect to B field
   DQ        =  0.001000  dq finite difference perturbation B field
   LLRAUG    =     F  two centre corrections for induced B field

 PEAD related settings:
   LPEAD      =     T    switch on PEAD
   IPEAD      =     4    finite difference order for dpsi/dk
   LCALCPOL   =     F    calculate macroscopic polarization
   LCALCEPS   =     F    calculate dielectric tensor
   EFIELD_PEAD=    0.0000    0.0000    0.0000
   SKIP_EDOTP =     F
   LRPA       =     F
   SKIP_SCF   =     F


--------------------------------------------------------------------------------------------------------


 Static calculation
 charge density and potential will be updated during run
 non-spin polarized calculation
 Variant of blocked Davidson
 Davidson routine will perform the subspace rotation
 perform sub-space diagonalisation
    after iterative eigenvector-optimisation
 modified Broyden-mixing scheme, WC =      100.0
 initial mixing is a Kerker type mixing with AMIX =  0.4000 and BMIX =      1.0000
 Hartree-type preconditioning will be used
 using additional bands           80
 real space projection scheme for non local part
 use partial core corrections
 calculate Harris-corrections to forces
   (improved forces if not selfconsistent)
 use gradient corrections
 use of overlap-Matrix (Vanderbilt PP)
 Gauss-broadening in eV      SIGMA  =   0.10


--------------------------------------------------------------------------------------------------------


  energy-cutoff  :      400.00
  volume of cell :     1243.14
      direct lattice vectors                 reciprocal lattice vectors
    11.376843452  0.000000000  0.000000000     0.087897843  0.000000000  0.000000000
     0.000000000 11.376843452  0.000000000     0.000000000  0.087897843  0.000000000
     0.000000000  0.000000000  9.604574204     0.000000000  0.000000000  0.104117057

  length of vectors
    11.376843452 11.376843452  9.604574204     0.087897843  0.087897843  0.104117057



 k-points in units of 2pi/SCALE and weight: K-Points
   0.02197446  0.02197446  0.02602926       0.250
  -0.02197446  0.02197446  0.02602926       0.250
  -0.02197446 -0.02197446  0.02602926       0.250
   0.02197446 -0.02197446  0.02602926       0.250

 k-points in reciprocal lattice and weights: K-Points
   0.25000000  0.25000000  0.25000000       0.250
  -0.25000000  0.25000000  0.25000000       0.250
  -0.25000000 -0.25000000  0.25000000       0.250
   0.25000000 -0.25000000  0.25000000       0.250

 position of ions in fractional coordinates (direct lattice)
   0.16666667  0.16666667  0.50000000
   0.16666667  0.50000000  0.50000000
   0.16666667  0.83333331  0.50000000
   0.50000000  0.16666667  0.50000000
   0.50000000  0.50000000  0.50000000
   0.50000000  0.83333331  0.50000000
   0.83333331  0.16666667  0.50000000
   0.83333331  0.50000000  0.50000000
   0.83333331  0.83333331  0.50000000
   0.16666667  0.00000000  0.75000000
   0.16666667  0.33333334  0.75000000
   0.16666667  0.66666669  0.75000000
   0.50000000  0.00000000  0.75000000
   0.50000000  0.33333334  0.75000000
   0.50000000  0.66666669  0.75000000
   0.83333331  0.00000000  0.75000000
   0.83333331  0.33333334  0.75000000
   0.83333331  0.66666669  0.75000000
   0.00000000  0.00000000  0.00000000
   0.00000000  0.33333334  0.00000000
   0.00000000  0.66666669  0.00000000
   0.33333334  0.00000000  0.00000000
   0.33333334  0.33333334  0.00000000
   0.33333334  0.66666669  0.00000000
   0.66666669  0.00000000  0.00000000
   0.66666669  0.33333334  0.00000000
   0.66666669  0.66666669  0.00000000
   0.00000000  0.16666667  0.25000000
   0.00000000  0.50000000  0.25000000
   0.00000000  0.83333331  0.25000000
   0.33333334  0.16666667  0.25000000
   0.33333334  0.50000000  0.25000000
   0.33333334  0.83333331  0.25000000
   0.66666669  0.16666667  0.25000000
   0.66666669  0.50000000  0.25000000
   0.66666669  0.83333331  0.25000000
   0.00000000  0.16666667  0.45789859
   0.00000000  0.50000000  0.45789859
   0.00000000  0.83333331  0.45789859
   0.33333334  0.16666667  0.45789859
   0.33333334  0.50000000  0.45789859
   0.33333334  0.83333331  0.45789859
   0.66666669  0.16666667  0.44748688
   0.66666669  0.50000000  0.45789859
   0.66666669  0.83333331  0.45789859
   0.16666667  0.16666667  0.70789862
   0.16666667  0.50000000  0.70789862
   0.16666667  0.83333331  0.70789862
   0.50000000  0.16666667  0.70789862
   0.50000000  0.50000000  0.70789862
   0.50000000  0.83333331  0.70789862
   0.83333331  0.16666667  0.70789862
   0.83333331  0.50000000  0.70789862
   0.83333331  0.83333331  0.70789862
   0.16666667  0.00000000  0.54210138
   0.16666667  0.33333334  0.54210138
   0.16666667  0.66666669  0.54210138
   0.50000000  0.00000000  0.54210138
   0.50000000  0.33333334  0.54210138
   0.50000000  0.66666669  0.54210138
   0.83333331  0.00000000  0.54210138
   0.83333331  0.33333334  0.54210138
   0.83333331  0.66666669  0.54210138
   0.00000000  0.00000000  0.79210138
   0.00000000  0.33333334  0.79210138
   0.00000000  0.66666669  0.79210138
   0.33333334  0.00000000  0.79210138
   0.33333334  0.33333334  0.79210138
   0.33333334  0.66666669  0.79210138
   0.66666669  0.00000000  0.79210138
   0.66666669  0.33333334  0.79210138
   0.66666669  0.66666669  0.79210138
   0.16666667  0.00000000  0.95789862
   0.16666667  0.33333334  0.95789862
   0.16666667  0.66666669  0.95789862
   0.50000000  0.00000000  0.95789862
   0.50000000  0.33333334  0.95789862
   0.50000000  0.66666669  0.95789862
   0.83333331  0.00000000  0.95789862
   0.83333331  0.33333334  0.95789862
   0.83333331  0.66666669  0.95789862
   0.00000000  0.00000000  0.20789860
   0.00000000  0.33333334  0.20789860
   0.00000000  0.66666669  0.20789860
   0.33333334  0.00000000  0.20789860
   0.33333334  0.33333334  0.20789860
   0.33333334  0.66666669  0.20789860
   0.66666669  0.00000000  0.20789860
   0.66666669  0.33333334  0.20789860
   0.66666669  0.66666669  0.20789860
   0.00000000  0.16666667  0.04210141
   0.00000000  0.50000000  0.04210141
   0.00000000  0.83333331  0.04210141
   0.33333334  0.16666667  0.04210141
   0.33333334  0.50000000  0.04210141
   0.33333334  0.83333331  0.04210141
   0.66666669  0.16666667  0.04210141
   0.66666669  0.50000000  0.04210141
   0.66666669  0.83333331  0.04210141
   0.16666667  0.16666667  0.29210141
   0.16666667  0.50000000  0.29210141
   0.16666667  0.83333331  0.29210141
   0.50000000  0.16666667  0.29210141
   0.50000000  0.50000000  0.29210141
   0.50000000  0.83333331  0.29210141
   0.83333331  0.16666667  0.29210141
   0.83333331  0.50000000  0.29210141
   0.83333331  0.83333331  0.29210141

 position of ions in cartesian coordinates  (Angst):
   1.89614063  1.89614063  4.80228710
   1.89614063  5.68842173  4.80228710
   1.89614063  9.48070265  4.80228710
   5.68842173  1.89614063  4.80228710
   5.68842173  5.68842173  4.80228710
   5.68842173  9.48070265  4.80228710
   9.48070265  1.89614063  4.80228710
   9.48070265  5.68842173  4.80228710
   9.48070265  9.48070265  4.80228710
   1.89614063  0.00000000  7.20343065
   1.89614063  3.79228126  7.20343065
   1.89614063  7.58456253  7.20343065
   5.68842173  0.00000000  7.20343065
   5.68842173  3.79228126  7.20343065
   5.68842173  7.58456253  7.20343065
   9.48070265  0.00000000  7.20343065
   9.48070265  3.79228126  7.20343065
   9.48070265  7.58456253  7.20343065
   0.00000000  0.00000000  0.00000000
   0.00000000  3.79228126  0.00000000
   0.00000000  7.58456253  0.00000000
   3.79228126  0.00000000  0.00000000
   3.79228126  3.79228126  0.00000000
   3.79228126  7.58456253  0.00000000
   7.58456253  0.00000000  0.00000000
   7.58456253  3.79228126  0.00000000
   7.58456253  7.58456253  0.00000000
   0.00000000  1.89614063  2.40114355
   0.00000000  5.68842173  2.40114355
   0.00000000  9.48070265  2.40114355
   3.79228126  1.89614063  2.40114355
   3.79228126  5.68842173  2.40114355
   3.79228126  9.48070265  2.40114355
   7.58456253  1.89614063  2.40114355
   7.58456253  5.68842173  2.40114355
   7.58456253  9.48070265  2.40114355
   0.00000000  1.89614063  4.39792096
   0.00000000  5.68842173  4.39792096
   0.00000000  9.48070265  4.39792096
   3.79228126  1.89614063  4.39792096
   3.79228126  5.68842173  4.39792096
   3.79228126  9.48070265  4.39792096
   7.58456253  1.89614063  4.29792096
   7.58456253  5.68842173  4.39792096
   7.58456253  9.48070265  4.39792096
   1.89614063  1.89614063  6.79906479
   1.89614063  5.68842173  6.79906479
   1.89614063  9.48070265  6.79906479
   5.68842173  1.89614063  6.79906479
   5.68842173  5.68842173  6.79906479
   5.68842173  9.48070265  6.79906479
   9.48070265  1.89614063  6.79906479
   9.48070265  5.68842173  6.79906479
   9.48070265  9.48070265  6.79906479
   1.89614063  0.00000000  5.20665296
   1.89614063  3.79228126  5.20665296
   1.89614063  7.58456253  5.20665296
   5.68842173  0.00000000  5.20665296
   5.68842173  3.79228126  5.20665296
   5.68842173  7.58456253  5.20665296
   9.48070265  0.00000000  5.20665296
   9.48070265  3.79228126  5.20665296
   9.48070265  7.58456253  5.20665296
   0.00000000  0.00000000  7.60779651
   0.00000000  3.79228126  7.60779651
   0.00000000  7.58456253  7.60779651
   3.79228126  0.00000000  7.60779651
   3.79228126  3.79228126  7.60779651
   3.79228126  7.58456253  7.60779651
   7.58456253  0.00000000  7.60779651
   7.58456253  3.79228126  7.60779651
   7.58456253  7.58456253  7.60779651
   1.89614063  0.00000000  9.20020834
   1.89614063  3.79228126  9.20020834
   1.89614063  7.58456253  9.20020834
   5.68842173  0.00000000  9.20020834
   5.68842173  3.79228126  9.20020834
   5.68842173  7.58456253  9.20020834
   9.48070265  0.00000000  9.20020834
   9.48070265  3.79228126  9.20020834
   9.48070265  7.58456253  9.20020834
   0.00000000  0.00000000  1.99677755
   0.00000000  3.79228126  1.99677755
   0.00000000  7.58456253  1.99677755
   3.79228126  0.00000000  1.99677755
   3.79228126  3.79228126  1.99677755
   3.79228126  7.58456253  1.99677755
   7.58456253  0.00000000  1.99677755
   7.58456253  3.79228126  1.99677755
   7.58456253  7.58456253  1.99677755
   0.00000000  1.89614063  0.40436607
   0.00000000  5.68842173  0.40436607
   0.00000000  9.48070265  0.40436607
   3.79228126  1.89614063  0.40436607
   3.79228126  5.68842173  0.40436607
   3.79228126  9.48070265  0.40436607
   7.58456253  1.89614063  0.40436607
   7.58456253  5.68842173  0.40436607
   7.58456253  9.48070265  0.40436607
   1.89614063  1.89614063  2.80550970
   1.89614063  5.68842173  2.80550970
   1.89614063  9.48070265  2.80550970
   5.68842173  1.89614063  2.80550970
   5.68842173  5.68842173  2.80550970
   5.68842173  9.48070265  2.80550970
   9.48070265  1.89614063  2.80550970
   9.48070265  5.68842173  2.80550970
   9.48070265  9.48070265  2.80550970



--------------------------------------------------------------------------------------------------------


 k-point   1 :   0.2500 0.2500 0.2500  plane waves:   22590
 k-point   2 :  -0.2500 0.2500 0.2500  plane waves:   22590
 k-point   3 :  -0.2500-0.2500 0.2500  plane waves:   22590
 k-point   4 :   0.2500-0.2500 0.2500  plane waves:   22590

 maximum and minimum number of plane-waves per node :     22590    22590

 maximum number of plane-waves:     22590
 maximum index in each direction:
   IXMAX=   18   IYMAX=   18   IZMAX=   15
   IXMIN=  -18   IYMIN=  -18   IZMIN=  -15


 serial   3D FFT for wavefunctions
 parallel 3D FFT for charge:
    minimum data exchange during FFTs selected (reduces bandwidth)


 total amount of memory used by VASP MPI-rank0   266725. kBytes
=======================================================================

   base      :      30000. kBytes
   nonlr-proj:      19556. kBytes
   fftplans  :      10927. kBytes
   grid      :      23181. kBytes
   one-center:       1679. kBytes
   wavefun   :     181382. kBytes

     INWAV:  cpu time      0.0001: real time      0.0003
 Broyden mixing: mesh for mixing (old mesh)
   NGX = 37   NGY = 37   NGZ = 31
  (NGX  =112   NGY  =112   NGZ  = 96)
  gives a total of  42439 points

 initial charge density was supplied:
 charge density of overlapping atoms calculated
 number of electron     792.0000000 magnetization
 keeping initial charge density in first step


--------------------------------------------------------------------------------------------------------


 Maximum index for non-local projection operator         1743
 Maximum index for augmentation-charges         1189 (set IRDMAX)


--------------------------------------------------------------------------------------------------------


 First call to EWALD:  gamma=   0.165
 Maximum number of real-space cells 3x 3x 3
 Maximum number of reciprocal cells 3x 3x 3

    FEWALD:  cpu time      0.0234: real time      0.0236


--------------------------------------- Iteration      1(   1)  ---------------------------------------


    POTLOK:  cpu time      0.1774: real time      0.1790
    SETDIJ:  cpu time      0.0087: real time      0.0088
     EDDAV:  cpu time     11.6843: real time     11.7677
       DOS:  cpu time      0.0030: real time      0.0031
    --------------------------------------------
      LOOP:  cpu time     11.8734: real time     11.9586

 eigenvalue-minimisations  :  3824
 total energy-change (2. order) : 0.1156082E+05  (-0.3305570E+05)
 number of electron     792.0000000 magnetization
 augmentation part      792.0000000 magnetization

 Free energy of the ion-electron system (eV)
  ---------------------------------------------------
  alpha Z        PSCENC =      3563.47650690
  Ewald energy   TEWEN  =    -48579.09415671
  -Hartree energ DENC   =    -18849.45748272
  -exchange      EXHF   =         0.00000000
  -V(xc)+E(xc)   XCENC  =      3286.92133036
  PAW double counting   =     54431.09303398   -54537.79254336
  entropy T*S    EENTRO =        -0.14522524
  eigenvalues    EBANDS =      3589.42047731
  atomic energy  EATOM  =     68656.39924158
  Solvation  Ediel_sol  =         0.00000000
  ---------------------------------------------------
  free energy    TOTEN  =     11560.82118210 eV

  energy without entropy =    11560.96640734  energy(sigma->0) =    11560.89379472


--------------------------------------------------------------------------------------------------------




--------------------------------------- Iteration      1(   2)  ---------------------------------------


     EDDAV:  cpu time     11.6528: real time     11.7388
       DOS:  cpu time      0.0010: real time      0.0010
    --------------------------------------------
      LOOP:  cpu time     11.6538: real time     11.7397

 eigenvalue-minimisations  :  3808
 total energy-change (2. order) :-0.9987604E+04  (-0.9556987E+04)
 number of electron     792.0000000 magnetization
 augmentation part      792.0000000 magnetization

 Free energy of the ion-electron system (eV)
  ---------------------------------------------------
  alpha Z        PSCENC =      3563.47650690
  Ewald energy   TEWEN  =    -48579.09415671
  -Hartree energ DENC   =    -18849.45748272
  -exchange      EXHF   =         0.00000000
  -V(xc)+E(xc)   XCENC  =      3286.92133036
  PAW double counting   =     54431.09303398   -54537.79254336
  entropy T*S    EENTRO =        -0.28466669
  eigenvalues    EBANDS =     -6398.04417035
  atomic energy  EATOM  =     68656.39924158
  Solvation  Ediel_sol  =         0.00000000
  ---------------------------------------------------
  free energy    TOTEN  =      1573.21709299 eV

  energy without entropy =     1573.50175968  energy(sigma->0) =     1573.35942633


--------------------------------------------------------------------------------------------------------




--------------------------------------- Iteration      1(   3)  ---------------------------------------


     EDDAV:  cpu time     13.1302: real time     13.2289
       DOS:  cpu time      0.0006: real time      0.0006
    --------------------------------------------
      LOOP:  cpu time     13.1308: real time     13.2295

 eigenvalue-minimisations  :  4408
 total energy-change (2. order) :-0.2641677E+04  (-0.2569959E+04)
 number of electron     792.0000000 magnetization
 augmentation part      792.0000000 magnetization

 Free energy of the ion-electron system (eV)
  ---------------------------------------------------
  alpha Z        PSCENC =      3563.47650690
  Ewald energy   TEWEN  =    -48579.09415671
  -Hartree energ DENC   =    -18849.45748272
  -exchange      EXHF   =         0.00000000
  -V(xc)+E(xc)   XCENC  =      3286.92133036
  PAW double counting   =     54431.09303398   -54537.79254336
  entropy T*S    EENTRO =        -0.00000000
  eigenvalues    EBANDS =     -9040.00552724
  atomic energy  EATOM  =     68656.39924158
  Solvation  Ediel_sol  =         0.00000000
  ---------------------------------------------------
  free energy    TOTEN  =     -1068.45959722 eV

  energy without entropy =    -1068.45959722  energy(sigma->0) =    -1068.45959722


--------------------------------------------------------------------------------------------------------




--------------------------------------- Iteration      1(   4)  ---------------------------------------


     EDDAV:  cpu time     15.1381: real time     15.2503
       DOS:  cpu time      0.0011: real time      0.0011
    --------------------------------------------
      LOOP:  cpu time     15.1392: real time     15.2514

 eigenvalue-minimisations  :  5096
 total energy-change (2. order) :-0.2051391E+03  (-0.2040895E+03)
 number of electron     792.0000000 magnetization
 augmentation part      792.0000000 magnetization

 Free energy of the ion-electron system (eV)
  ---------------------------------------------------
  alpha Z        PSCENC =      3563.47650690
  Ewald energy   TEWEN  =    -48579.09415671
  -Hartree energ DENC   =    -18849.45748272
  -exchange      EXHF   =         0.00000000
  -V(xc)+E(xc)   XCENC  =      3286.92133036
  PAW double counting   =     54431.09303398   -54537.79254336
  entropy T*S    EENTRO =        -0.00000000
  eigenvalues    EBANDS =     -9245.14467019
  atomic energy  EATOM  =     68656.39924158
  Solvation  Ediel_sol  =         0.00000000
  ---------------------------------------------------
  free energy    TOTEN  =     -1273.59874016 eV

  energy without entropy =    -1273.59874016  energy(sigma->0) =    -1273.59874016


--------------------------------------------------------------------------------------------------------




--------------------------------------- Iteration      1(   5)  ---------------------------------------


     EDDAV:  cpu time     14.6989: real time     14.8068
       DOS:  cpu time      0.0008: real time      0.0008
    CHARGE:  cpu time      0.2385: real time      0.2416
    MIXING:  cpu time      0.0124: real time      0.0126
    --------------------------------------------
      LOOP:  cpu time     14.9507: real time     15.0618

 eigenvalue-minimisations  :  5024
 total energy-change (2. order) :-0.5107290E+01  (-0.5096815E+01)
 number of electron     792.0003055 magnetization
 augmentation part      202.2570661 magnetization

 Broyden mixing:
  rms(total) = 0.17255E+02    rms(broyden)= 0.17254E+02
  rms(prec ) = 0.19192E+02
  weight for this iteration     100.00

 Free energy of the ion-electron system (eV)
  ---------------------------------------------------
  alpha Z        PSCENC =      3563.47650690
  Ewald energy   TEWEN  =    -48579.09415671
  -Hartree energ DENC   =    -18849.45748272
  -exchange      EXHF   =         0.00000000
  -V(xc)+E(xc)   XCENC  =      3286.92133036
  PAW double counting   =     54431.09303398   -54537.79254336
  entropy T*S    EENTRO =        -0.00000000
  eigenvalues    EBANDS =     -9250.25195982
  atomic energy  EATOM  =     68656.39924158
  Solvation  Ediel_sol  =         0.00000000
  ---------------------------------------------------
  free energy    TOTEN  =     -1278.70602980 eV

  energy without entropy =    -1278.70602980  energy(sigma->0) =    -1278.70602980


--------------------------------------------------------------------------------------------------------




--------------------------------------- Iteration      1(   6)  ---------------------------------------


    POTLOK:  cpu time      0.1812: real time      0.1828
    SETDIJ:  cpu time      0.0086: real time      0.0087
     EDDAV:  cpu time     14.4945: real time     14.5978
       DOS:  cpu time      0.0007: real time      0.0007
    CHARGE:  cpu time      0.2189: real time      0.2215
    MIXING:  cpu time      0.0115: real time      0.0116
    --------------------------------------------
      LOOP:  cpu time     14.9155: real time     15.0232

 eigenvalue-minimisations  :  4968
 total energy-change (2. order) : 0.3023167E+03  (-0.1979353E+03)
 number of electron     792.0002462 magnetization
 augmentation part      214.1052731 magnetization

 Broyden mixing:
  rms(total) = 0.53083E+01    rms(broyden)= 0.53034E+01
  rms(prec ) = 0.58356E+01
  weight for this iteration     100.00

 eigenvalues of (default mixing * dielectric matrix)
  average eigenvalue GAMMA=   0.9652
  0.9652

 Free energy of the ion-electron system (eV)
  ---------------------------------------------------
  alpha Z        PSCENC =      3563.47650690
  Ewald energy   TEWEN  =    -48579.09415671
  -Hartree energ DENC   =    -19075.69360719
  -exchange      EXHF   =         0.00000000
  -V(xc)+E(xc)   XCENC  =      3337.99939901
  PAW double counting   =     68267.66488100   -68500.01367041
  entropy T*S    EENTRO =        -0.00000000
  eigenvalues    EBANDS =     -8647.12788532
  atomic energy  EATOM  =     68656.39924158
  Solvation  Ediel_sol  =         0.00000000
  ---------------------------------------------------
  free energy    TOTEN  =      -976.38929113 eV

  energy without entropy =     -976.38929113  energy(sigma->0) =     -976.38929113


--------------------------------------------------------------------------------------------------------




--------------------------------------- Iteration      1(   7)  ---------------------------------------


    POTLOK:  cpu time      0.1743: real time      0.1760
    SETDIJ:  cpu time      0.0122: real time      0.0123
     EDDAV:  cpu time     15.4760: real time     15.5877
       DOS:  cpu time      0.0004: real time      0.0004
    CHARGE:  cpu time      0.2277: real time      0.2303
    MIXING:  cpu time      0.0124: real time      0.0124
    --------------------------------------------
      LOOP:  cpu time     15.9028: real time     16.0190

 eigenvalue-minimisations  :  5328
 total energy-change (2. order) : 0.4373419E+01  (-0.2851550E+02)
 number of electron     792.0002653 magnetization
 augmentation part      207.3486494 magnetization

 Broyden mixing:
  rms(total) = 0.45925E+01    rms(broyden)= 0.45922E+01
  rms(prec ) = 0.47847E+01
  weight for this iteration     100.00

 eigenvalues of (default mixing * dielectric matrix)
  average eigenvalue GAMMA=   1.8458
  0.7380  2.9537

 Free energy of the ion-electron system (eV)
  ---------------------------------------------------
  alpha Z        PSCENC =      3563.47650690
  Ewald energy   TEWEN  =    -48579.09415671
  -Hartree energ DENC   =    -18917.54685766
  -exchange      EXHF   =         0.00000000
  -V(xc)+E(xc)   XCENC  =      3318.72010014
  PAW double counting   =     75275.69991142   -75519.10837469
  entropy T*S    EENTRO =        -0.00000000
  eigenvalues    EBANDS =     -8770.56224339
  atomic energy  EATOM  =     68656.39924158
  Solvation  Ediel_sol  =         0.00000000
  ---------------------------------------------------
  free energy    TOTEN  =      -972.01587240 eV

  energy without entropy =     -972.01587240  energy(sigma->0) =     -972.01587240


--------------------------------------------------------------------------------------------------------




--------------------------------------- Iteration      1(   8)  ---------------------------------------


    POTLOK:  cpu time      0.1718: real time      0.1737
    SETDIJ:  cpu time      0.0144: real time      0.0145
     EDDAV:  cpu time     14.7011: real time     14.8026
       DOS:  cpu time      0.0005: real time      0.0005
    CHARGE:  cpu time      0.2152: real time      0.2197
    MIXING:  cpu time      0.0116: real time      0.0117
    --------------------------------------------
      LOOP:  cpu time     15.1147: real time     15.2227

 eigenvalue-minimisations  :  5008
 total energy-change (2. order) :-0.1574285E+00  (-0.1106180E+02)
 number of electron     792.0002588 magnetization
 augmentation part      215.5857164 magnetization

 Broyden mixing:
  rms(total) = 0.33697E+01    rms(broyden)= 0.33695E+01
  rms(prec ) = 0.36697E+01
  weight for this iteration     100.00

 eigenvalues of (default mixing * dielectric matrix)
  average eigenvalue GAMMA=   1.2338
  2.1788  0.9253  0.5973

 Free energy of the ion-electron system (eV)
  ---------------------------------------------------
  alpha Z        PSCENC =      3563.47650690
  Ewald energy   TEWEN  =    -48579.09415671
  -Hartree energ DENC   =    -18541.13486407
  -exchange      EXHF   =         0.00000000
  -V(xc)+E(xc)   XCENC  =      3303.96073240
  PAW double counting   =     93904.86449180   -94220.63235562
  entropy T*S    EENTRO =        -0.00000000
  eigenvalues    EBANDS =     -9060.01289723
  atomic energy  EATOM  =     68656.39924158
  Solvation  Ediel_sol  =         0.00000000
  ---------------------------------------------------
  free energy    TOTEN  =      -972.17330094 eV

  energy without entropy =     -972.17330094  energy(sigma->0) =     -972.17330094


--------------------------------------------------------------------------------------------------------




--------------------------------------- Iteration      1(   9)  ---------------------------------------


    POTLOK:  cpu time      0.1714: real time      0.1732
    SETDIJ:  cpu time      0.0129: real time      0.0129
     EDDAV:  cpu time     14.9100: real time     15.0174
       DOS:  cpu time      0.0006: real time      0.0006
    CHARGE:  cpu time      0.2386: real time      0.2413
    MIXING:  cpu time      0.0117: real time      0.0117
    --------------------------------------------
      LOOP:  cpu time     15.3451: real time     15.4572

 eigenvalue-minimisations  :  5096
 total energy-change (2. order) : 0.5597370E+01  (-0.3451825E+01)
 number of electron     792.0002635 magnetization
 augmentation part      211.4919648 magnetization

 Broyden mixing:
  rms(total) = 0.26181E+00    rms(broyden)= 0.26109E+00
  rms(prec ) = 0.28540E+00
  weight for this iteration     100.00

 eigenvalues of (default mixing * dielectric matrix)
  average eigenvalue GAMMA=   1.1863
  2.1804  0.9695  0.9695  0.6258

 Free energy of the ion-electron system (eV)
  ---------------------------------------------------
  alpha Z        PSCENC =      3563.47650690
  Ewald energy   TEWEN  =    -48579.09415671
  -Hartree energ DENC   =    -18685.61536726
  -exchange      EXHF   =         0.00000000
  -V(xc)+E(xc)   XCENC  =      3308.86113658
  PAW double counting   =     88643.96369756   -88940.52928012
  entropy T*S    EENTRO =        -0.00000000
  eigenvalues    EBANDS =     -8934.03770965
  atomic energy  EATOM  =     68656.39924158
  Solvation  Ediel_sol  =         0.00000000
  ---------------------------------------------------
  free energy    TOTEN  =      -966.57593112 eV

  energy without entropy =     -966.57593112  energy(sigma->0) =     -966.57593112


--------------------------------------------------------------------------------------------------------




--------------------------------------- Iteration      1(  10)  ---------------------------------------


    POTLOK:  cpu time      0.1675: real time      0.1693
    SETDIJ:  cpu time      0.0154: real time      0.0155
     EDDAV:  cpu time     15.2973: real time     15.4038
       DOS:  cpu time      0.0006: real time      0.0006
    CHARGE:  cpu time      0.2159: real time      0.2184
    MIXING:  cpu time      0.0123: real time      0.0124
    --------------------------------------------
      LOOP:  cpu time     15.7090: real time     15.8199

 eigenvalue-minimisations  :  5224
 total energy-change (2. order) :-0.4143836E-01  (-0.8302182E-01)
 number of electron     792.0002628 magnetization
 augmentation part      211.5295078 magnetization

 Broyden mixing:
  rms(total) = 0.21185E+00    rms(broyden)= 0.21180E+00
  rms(prec ) = 0.23055E+00
  weight for this iteration     100.00

 eigenvalues of (default mixing * dielectric matrix)
  average eigenvalue GAMMA=   1.3137
  2.5178  1.7987  1.0400  0.6658  0.5465

 Free energy of the ion-electron system (eV)
  ---------------------------------------------------
  alpha Z        PSCENC =      3563.47650690
  Ewald energy   TEWEN  =    -48579.09415671
  -Hartree energ DENC   =    -18715.43535140
  -exchange      EXHF   =         0.00000000
  -V(xc)+E(xc)   XCENC  =      3310.98754530
  PAW double counting   =     88845.55969290   -89144.92023630
  entropy T*S    EENTRO =        -0.00000000
  eigenvalues    EBANDS =     -8903.59061174
  atomic energy  EATOM  =     68656.39924158
  Solvation  Ediel_sol  =         0.00000000
  ---------------------------------------------------
  free energy    TOTEN  =      -966.61736948 eV

  energy without entropy =     -966.61736948  energy(sigma->0) =     -966.61736948


--------------------------------------------------------------------------------------------------------




--------------------------------------- Iteration      1(  11)  ---------------------------------------


    POTLOK:  cpu time      0.1735: real time      0.1752
    SETDIJ:  cpu time      0.0095: real time      0.0095
     EDDAV:  cpu time     13.7481: real time     13.8433
       DOS:  cpu time      0.0006: real time      0.0006
    CHARGE:  cpu time      0.2140: real time      0.2151
    MIXING:  cpu time      0.0126: real time      0.0127
    --------------------------------------------
      LOOP:  cpu time     14.1583: real time     14.2565

 eigenvalue-minimisations  :  4632
 total energy-change (2. order) :-0.4242721E-01  (-0.2640122E-01)
 number of electron     792.0002621 magnetization
 augmentation part      211.4583415 magnetization

 Broyden mixing:
  rms(total) = 0.18561E+00    rms(broyden)= 0.18559E+00
  rms(prec ) = 0.22400E+00
  weight for this iteration     100.00

 eigenvalues of (default mixing * dielectric matrix)
  average eigenvalue GAMMA=   1.2813
  2.5179  1.8395  1.0592  1.0592  0.5946  0.6173

 Free energy of the ion-electron system (eV)
  ---------------------------------------------------
  alpha Z        PSCENC =      3563.47650690
  Ewald energy   TEWEN  =    -48579.09415671
  -Hartree energ DENC   =    -18750.78329653
  -exchange      EXHF   =         0.00000000
  -V(xc)+E(xc)   XCENC  =      3313.37032741
  PAW double counting   =     89236.04734329   -89538.92265724
  entropy T*S    EENTRO =        -0.00000000
  eigenvalues    EBANDS =     -8867.15310539
  atomic energy  EATOM  =     68656.39924158
  Solvation  Ediel_sol  =         0.00000000
  ---------------------------------------------------
  free energy    TOTEN  =      -966.65979669 eV

  energy without entropy =     -966.65979669  energy(sigma->0) =     -966.65979669


--------------------------------------------------------------------------------------------------------




--------------------------------------- Iteration      1(  12)  ---------------------------------------


    POTLOK:  cpu time      0.1777: real time      0.1795
    SETDIJ:  cpu time      0.0102: real time      0.0103
     EDDAV:  cpu time     15.4187: real time     15.5244
       DOS:  cpu time      0.0007: real time      0.0007
    CHARGE:  cpu time      0.2307: real time      0.2326
    MIXING:  cpu time      0.0133: real time      0.0134
    --------------------------------------------
      LOOP:  cpu time     15.8514: real time     15.9610

 eigenvalue-minimisations  :  5280
 total energy-change (2. order) : 0.3863750E-01  (-0.4206295E-01)
 number of electron     792.0002629 magnetization
 augmentation part      211.1715102 magnetization

 Broyden mixing:
  rms(total) = 0.65054E-01    rms(broyden)= 0.64963E-01
  rms(prec ) = 0.75182E-01
  weight for this iteration     100.00

 eigenvalues of (default mixing * dielectric matrix)
  average eigenvalue GAMMA=   1.2348
  2.5814  1.5768  1.5768  1.0158  0.7294  0.5817  0.5817

 Free energy of the ion-electron system (eV)
  ---------------------------------------------------
  alpha Z        PSCENC =      3563.47650690
  Ewald energy   TEWEN  =    -48579.09415671
  -Hartree energ DENC   =    -18747.01168943
  -exchange      EXHF   =         0.00000000
  -V(xc)+E(xc)   XCENC  =      3312.71483902
  PAW double counting   =     89229.90213172   -89531.75957669
  entropy T*S    EENTRO =        -0.00000000
  eigenvalues    EBANDS =     -8871.24845558
  atomic energy  EATOM  =     68656.39924158
  Solvation  Ediel_sol  =         0.00000000
  ---------------------------------------------------
  free energy    TOTEN  =      -966.62115919 eV

  energy without entropy =     -966.62115919  energy(sigma->0) =     -966.62115919


--------------------------------------------------------------------------------------------------------




--------------------------------------- Iteration      1(  13)  ---------------------------------------


    POTLOK:  cpu time      0.1646: real time      0.1662
    SETDIJ:  cpu time      0.0142: real time      0.0143
     EDDAV:  cpu time     15.4786: real time     15.5863
       DOS:  cpu time      0.0006: real time      0.0006
    CHARGE:  cpu time      0.2350: real time      0.2363
    MIXING:  cpu time      0.0141: real time      0.0142
    --------------------------------------------
      LOOP:  cpu time     15.9070: real time     16.0179

 eigenvalue-minimisations  :  5280
 total energy-change (2. order) : 0.1778054E-02  (-0.1850817E-02)
 number of electron     792.0002628 magnetization
 augmentation part      211.2252790 magnetization

 Broyden mixing:
  rms(total) = 0.26544E-01    rms(broyden)= 0.26537E-01
  rms(prec ) = 0.32064E-01
  weight for this iteration     100.00

 eigenvalues of (default mixing * dielectric matrix)
  average eigenvalue GAMMA=   1.1910
  2.5850  1.7188  1.7188  0.9838  0.6641  0.6641  0.6254  0.5681

 Free energy of the ion-electron system (eV)
  ---------------------------------------------------
  alpha Z        PSCENC =      3563.47650690
  Ewald energy   TEWEN  =    -48579.09415671
  -Hartree energ DENC   =    -18746.61421751
  -exchange      EXHF   =         0.00000000
  -V(xc)+E(xc)   XCENC  =      3312.73804340
  PAW double counting   =     89275.07138565   -89576.96653186
  entropy T*S    EENTRO =        -0.00000000
  eigenvalues    EBANDS =     -8871.62965258
  atomic energy  EATOM  =     68656.39924158
  Solvation  Ediel_sol  =         0.00000000
  ---------------------------------------------------
  free energy    TOTEN  =      -966.61938113 eV

  energy without entropy =     -966.61938113  energy(sigma->0) =     -966.61938113


--------------------------------------------------------------------------------------------------------




--------------------------------------- Iteration      1(  14)  ---------------------------------------


    POTLOK:  cpu time      0.1658: real time      0.1677
    SETDIJ:  cpu time      0.0147: real time      0.0154
     EDDAV:  cpu time     15.6735: real time     15.7826
       DOS:  cpu time      0.0008: real time      0.0008
    CHARGE:  cpu time      0.2234: real time      0.2247
    MIXING:  cpu time      0.0141: real time      0.0142
    --------------------------------------------
      LOOP:  cpu time     16.0923: real time     16.2054

 eigenvalue-minimisations  :  5344
 total energy-change (2. order) : 0.3605628E-03  (-0.1305914E-03)
 number of electron     792.0002628 magnetization
 augmentation part      211.2312883 magnetization

 Broyden mixing:
  rms(total) = 0.16908E-01    rms(broyden)= 0.16907E-01
  rms(prec ) = 0.20272E-01
  weight for this iteration     100.00

 eigenvalues of (default mixing * dielectric matrix)
  average eigenvalue GAMMA=   1.2497
  2.5406  1.9920  1.9920  1.0198  0.9591  0.9591  0.6401  0.5724  0.5724

 Free energy of the ion-electron system (eV)
  ---------------------------------------------------
  alpha Z        PSCENC =      3563.47650690
  Ewald energy   TEWEN  =    -48579.09415671
  -Hartree energ DENC   =    -18747.55709481
  -exchange      EXHF   =         0.00000000
  -V(xc)+E(xc)   XCENC  =      3312.80054284
  PAW double counting   =     89267.41922424   -89569.23827635
  entropy T*S    EENTRO =        -0.00000000
  eigenvalues    EBANDS =     -8870.82500826
  atomic energy  EATOM  =     68656.39924158
  Solvation  Ediel_sol  =         0.00000000
  ---------------------------------------------------
  free energy    TOTEN  =      -966.61902057 eV

  energy without entropy =     -966.61902057  energy(sigma->0) =     -966.61902057


--------------------------------------------------------------------------------------------------------




--------------------------------------- Iteration      1(  15)  ---------------------------------------


    POTLOK:  cpu time      0.1716: real time      0.1734
    SETDIJ:  cpu time      0.0128: real time      0.0128
     EDDAV:  cpu time     15.5284: real time     15.6365
       DOS:  cpu time      0.0005: real time      0.0005
    CHARGE:  cpu time      0.2245: real time      0.2257
    MIXING:  cpu time      0.0147: real time      0.0148
    --------------------------------------------
      LOOP:  cpu time     15.9524: real time     16.0637

 eigenvalue-minimisations  :  5288
 total energy-change (2. order) : 0.1261843E-04  (-0.1266305E-03)
 number of electron     792.0002628 magnetization
 augmentation part      211.2346808 magnetization

 Broyden mixing:
  rms(total) = 0.84347E-02    rms(broyden)= 0.84300E-02
  rms(prec ) = 0.10307E-01
  weight for this iteration     100.00

 eigenvalues of (default mixing * dielectric matrix)
  average eigenvalue GAMMA=   1.2374
  2.7446  2.2725  2.1219  0.9080  0.9080  0.8234  0.8234  0.6174  0.6005  0.5542

 Free energy of the ion-electron system (eV)
  ---------------------------------------------------
  alpha Z        PSCENC =      3563.47650690
  Ewald energy   TEWEN  =    -48579.09415671
  -Hartree energ DENC   =    -18749.07624314
  -exchange      EXHF   =         0.00000000
  -V(xc)+E(xc)   XCENC  =      3312.88543688
  PAW double counting   =     89247.82906178   -89549.45586746
  entropy T*S    EENTRO =        -0.00000000
  eigenvalues    EBANDS =     -8869.58298778
  atomic energy  EATOM  =     68656.39924158
  Solvation  Ediel_sol  =         0.00000000
  ---------------------------------------------------
  free energy    TOTEN  =      -966.61900795 eV

  energy without entropy =     -966.61900795  energy(sigma->0) =     -966.61900795


--------------------------------------------------------------------------------------------------------




--------------------------------------- Iteration      1(  16)  ---------------------------------------


    POTLOK:  cpu time      0.1627: real time      0.1646
    SETDIJ:  cpu time      0.0223: real time      0.0224
     EDDAV:  cpu time     15.5711: real time     15.6815
       DOS:  cpu time      0.0007: real time      0.0007
    CHARGE:  cpu time      0.2150: real time      0.2162
    MIXING:  cpu time      0.0149: real time      0.0154
    --------------------------------------------
      LOOP:  cpu time     15.9867: real time     16.1009

 eigenvalue-minimisations  :  5264
 total energy-change (2. order) : 0.3776181E-04  (-0.1027893E-03)
 number of electron     792.0002627 magnetization
 augmentation part      211.2492676 magnetization

 Broyden mixing:
  rms(total) = 0.61434E-02    rms(broyden)= 0.61398E-02
  rms(prec ) = 0.70572E-02
  weight for this iteration     100.00

 eigenvalues of (default mixing * dielectric matrix)
  average eigenvalue GAMMA=   1.1970
  2.8134  2.3612  2.0140  0.9582  0.9582  0.8070  0.8070  0.7560  0.5825  0.5825
  0.5270

 Free energy of the ion-electron system (eV)
  ---------------------------------------------------
  alpha Z        PSCENC =      3563.47650690
  Ewald energy   TEWEN  =    -48579.09415671
  -Hartree energ DENC   =    -18749.69554345
  -exchange      EXHF   =         0.00000000
  -V(xc)+E(xc)   XCENC  =      3312.93565175
  PAW double counting   =     89249.82377946   -89551.43023047
  entropy T*S    EENTRO =        -0.00000000
  eigenvalues    EBANDS =     -8869.03421924
  atomic energy  EATOM  =     68656.39924158
  Solvation  Ediel_sol  =         0.00000000
  ---------------------------------------------------
  free energy    TOTEN  =      -966.61897019 eV

  energy without entropy =     -966.61897019  energy(sigma->0) =     -966.61897019


--------------------------------------------------------------------------------------------------------




--------------------------------------- Iteration      1(  17)  ---------------------------------------


    POTLOK:  cpu time      0.1763: real time      0.1781
    SETDIJ:  cpu time      0.0093: real time      0.0093
     EDDAV:  cpu time     15.6440: real time     15.7524
       DOS:  cpu time      0.0016: real time      0.0016
    CHARGE:  cpu time      0.2360: real time      0.2372
    MIXING:  cpu time      0.0149: real time      0.0150
    --------------------------------------------
      LOOP:  cpu time     16.0821: real time     16.1937

 eigenvalue-minimisations  :  5312
 total energy-change (2. order) :-0.1462264E-05  (-0.1807658E-04)
 number of electron     792.0002627 magnetization
 augmentation part      211.2481171 magnetization

 Broyden mixing:
  rms(total) = 0.49092E-02    rms(broyden)= 0.49079E-02
  rms(prec ) = 0.58274E-02
  weight for this iteration     100.00

 eigenvalues of (default mixing * dielectric matrix)
  average eigenvalue GAMMA=   1.1629
  2.9061  2.3637  1.9576  1.0284  1.0284  0.8699  0.8699  0.6648  0.5826  0.5826
  0.5502  0.5502

 Free energy of the ion-electron system (eV)
  ---------------------------------------------------
  alpha Z        PSCENC =      3563.47650690
  Ewald energy   TEWEN  =    -48579.09415671
  -Hartree energ DENC   =    -18749.93409693
  -exchange      EXHF   =         0.00000000
  -V(xc)+E(xc)   XCENC  =      3312.94908935
  PAW double counting   =     89247.61517206   -89549.22433104
  entropy T*S    EENTRO =        -0.00000000
  eigenvalues    EBANDS =     -8868.80639685
  atomic energy  EATOM  =     68656.39924158
  Solvation  Ediel_sol  =         0.00000000
  ---------------------------------------------------
  free energy    TOTEN  =      -966.61897165 eV

  energy without entropy =     -966.61897165  energy(sigma->0) =     -966.61897165


--------------------------------------------------------------------------------------------------------




--------------------------------------- Iteration      1(  18)  ---------------------------------------


    POTLOK:  cpu time      0.1720: real time      0.1738
    SETDIJ:  cpu time      0.0182: real time      0.0183
     EDDAV:  cpu time     15.6021: real time     15.7101
       DOS:  cpu time      0.0006: real time      0.0006
    CHARGE:  cpu time      0.2334: real time      0.2347
    MIXING:  cpu time      0.0177: real time      0.0179
    --------------------------------------------
      LOOP:  cpu time     16.0441: real time     16.1555

 eigenvalue-minimisations  :  5312
 total energy-change (2. order) : 0.8175062E-05  (-0.2424256E-05)
 number of electron     792.0002627 magnetization
 augmentation part      211.2467073 magnetization

 Broyden mixing:
  rms(total) = 0.37661E-02    rms(broyden)= 0.37660E-02
  rms(prec ) = 0.44784E-02
  weight for this iteration     100.00

 eigenvalues of (default mixing * dielectric matrix)
  average eigenvalue GAMMA=   1.1578
  2.9400  2.3513  1.9260  1.1203  1.1203  0.8872  0.8872  0.7695  0.7695  0.6531
  0.5735  0.5735  0.4796

 Free energy of the ion-electron system (eV)
  ---------------------------------------------------
  alpha Z        PSCENC =      3563.47650690
  Ewald energy   TEWEN  =    -48579.09415671
  -Hartree energ DENC   =    -18750.01188008
  -exchange      EXHF   =         0.00000000
  -V(xc)+E(xc)   XCENC  =      3312.95131027
  PAW double counting   =     89246.95973345   -89548.57117566
[...]
      7.58456      3.79228      1.99678    -0.00001  0.01709 -2.89562 ( -0.63496  6.00000)
      7.58456      7.58456      1.99678    -0.00001  0.00029 -2.89109 ( -0.63487  6.00000)
      0.00000      1.89614      0.40437     0.00053 -0.00026 -2.89909 ( -0.63483  6.00000)
      0.00000      5.68842      0.40437    -0.00067  0.00286 -2.89423 ( -0.63480  6.00000)
      0.00000      9.48070      0.40437    -0.00067 -0.00258 -2.89484 ( -0.63483  6.00000)
      3.79228      1.89614      0.40437    -0.00054 -0.00032 -2.89915 ( -0.63485  6.00000)
      3.79228      5.68842      0.40437     0.00061  0.00285 -2.89482 ( -0.63482  6.00000)
      3.79228      9.48070      0.40437     0.00066 -0.00253 -2.89490 ( -0.63484  6.00000)
      7.58456      1.89614      0.40437     0.00000 -0.00027 -2.88668 ( -0.63528  6.00000)
      7.58456      5.68842      0.40437     0.00003  0.00764 -2.89047 ( -0.63483  6.00000)
      7.58456      9.48070      0.40437    -0.00002 -0.00736 -2.89056 ( -0.63486  6.00000)
      1.89614      1.89614      2.80551    -0.00033  0.00000 -2.89439 ( -0.63486  6.00000)
      1.89614      5.68842      2.80551    -0.00030  0.00120 -2.89489 ( -0.63483  6.00000)
      1.89614      9.48070      2.80551    -0.00035 -0.00118 -2.89496 ( -0.63484  6.00000)
      5.68842      1.89614      2.80551    -0.06812  0.00004 -2.89611 ( -0.63496  6.00000)
      5.68842      5.68842      2.80551     0.00242  0.00062 -2.89450 ( -0.63478  6.00000)
      5.68842      9.48070      2.80551     0.00239 -0.00065 -2.89506 ( -0.63479  6.00000)
      9.48070      1.89614      2.80551     0.06842  0.00001 -2.89620 ( -0.63499  6.00000)
      9.48070      5.68842      2.80551    -0.00215  0.00064 -2.89509 ( -0.63480  6.00000)
      9.48070      9.48070      2.80551    -0.00213 -0.00063 -2.89517 ( -0.63482  6.00000)
 -----------------------------------------------------------------------------------------
    total drift (improves with k-points):  -0.00016 -0.00003 -0.07413




--------------------------------------------------------------------------------------------------------




 MACROSCOPIC STATIC DIELECTRIC TENSOR (including local field effects in DFT)
 ------------------------------------------------------
           6.943392     0.000004     0.000011
           0.000003     6.955494     0.000003
          -0.000006    -0.000010     6.372954
 ------------------------------------------------------



--------------------------------------------------------------------------------------------------------




--------------------------------------------------------------------------------------------------------




 MACROSCOPIC STATIC DIELECTRIC TENSOR (including local field effects in DFT)
 ------------------------------------------------------
           6.943392     0.000004     0.000011
           0.000003     6.955494     0.000003
          -0.000006    -0.000010     6.372954
 ------------------------------------------------------


 PIEZOELECTRIC TENSOR (including local field effects)  for field in x, y, z        (e  Angst)
          XX          YY          ZZ          XY          YZ          ZX
  --------------------------------------------------------------------------------
  x    -0.00376     0.00329     0.00066    -0.00044     0.00011     0.19928
  y     0.00066    -0.00071    -0.00039     0.00012    -0.16260    -0.00017
  z     0.21256     0.44041    -0.05907     0.00005    -0.00004    -0.00007

 PIEZOELECTRIC TENSOR (including local field effects)  for field in x, y, z        (C/m^2)
          XX          YY          ZZ          XY          YZ          ZX
  --------------------------------------------------------------------------------
  x    -0.00005     0.00004     0.00001    -0.00001     0.00000     0.00257
  y     0.00001    -0.00001    -0.00001     0.00000    -0.00210    -0.00000
  z     0.00274     0.00568    -0.00076     0.00000    -0.00000    -0.00000

 BORN EFFECTIVE CHARGES (including local field effects) (in |e|, cummulative output)
 ---------------------------------------------------------------------------------
 ion    1
    1     6.64260     0.00009     0.00028
    2     0.00003     6.66505    -0.00027
    3     0.00020    -0.00022     5.78595
 ion    2
    1     6.65248    -0.00001    -0.00009
    2    -0.00002     6.66175    -0.00200
    3    -0.00022    -0.00423     5.78941
 ion    3
    1     6.65272    -0.00014     0.00031
    2    -0.00006     6.66310     0.00228
    3     0.00021     0.00436     5.79010
 ion    4
    1     6.37309     0.00002     0.01298
    2     0.00003     6.67085     0.00006
    3    -0.03969     0.00023     5.79466
 ion    5
    1     6.67497     0.03413    -0.00924
    2     0.00024     6.65850    -0.00290
    3    -0.00140     0.01709     5.78945
 ion    6
    1     6.67795    -0.03414    -0.00922
    2    -0.00023     6.66260     0.00278
    3    -0.00140    -0.01734     5.78952
 ion    7
    1     6.37446    -0.00005    -0.01331
    2    -0.00006     6.67103    -0.00028
    3     0.03962    -0.00019     5.79537
 ion    8
    1     6.67901    -0.03413     0.00931
    2    -0.00026     6.66146    -0.00290
    3     0.00169     0.01707     5.78951
 ion    9
    1     6.67923     0.03422     0.00896
    2     0.00030     6.66287     0.00319
    3     0.00128    -0.01692     5.79019
 ion   10
    1     6.65200    -0.00001     0.00013
    2    -0.00001     6.65704    -0.00365
    3     0.00020     0.00177     5.78468
 ion   11
    1     6.65226    -0.00009    -0.00029
    2    -0.00007     6.65841     0.00346
    3    -0.00017    -0.00192     5.78535
 ion   12
    1     6.65731     0.00010    -0.00031
    2     0.00011     6.66011     0.00029
    3    -0.00019     0.00019     5.78857
 ion   13
    1     6.68060    -0.01836     0.02843
    2    -0.00132     6.63690    -0.01682
    3    -0.00812    -0.00144     5.79212
 ion   14
    1     6.68355     0.01837     0.02839
    2     0.00136     6.64096     0.01695
    3    -0.00814     0.00173     5.79218
 ion   15
    1     6.66821     0.00002     0.00543
    2     0.00005     6.65803    -0.00011
    3    -0.00285    -0.00025     5.79417
 ion   16
    1     6.68468     0.01835    -0.02848
    2     0.00133     6.63987    -0.01682
    3     0.00791    -0.00148     5.79215
 ion   17
    1     6.68491    -0.01829    -0.02815
    2    -0.00131     6.64122     0.01652
    3     0.00831     0.00133     5.79285
 ion   18
    1     6.66959    -0.00006    -0.00508
    2    -0.00005     6.65823     0.00026
    3     0.00305     0.00017     5.79488
 ion   19
    1     6.63908     0.00237     0.00094
    2    -0.00188     6.65993    -0.00552
    3     0.00759     0.00279     5.79322
 ion   20
    1     6.64204    -0.00233     0.00096
    2     0.00192     6.66397     0.00538
    3     0.00760    -0.00306     5.79328
 ion   21
    1     6.65235     0.00001     0.00051
    2     0.00003     6.66023     0.00011
    3     0.00242     0.00024     5.78749
 ion   22
    1     6.64312    -0.00239    -0.00090
    2     0.00193     6.66286    -0.00549
    3    -0.00733     0.00280     5.79328
 ion   23
    1     6.64336     0.00247    -0.00127
    2    -0.00185     6.66423     0.00577
    3    -0.00779    -0.00261     5.79397
 ion   24
    1     6.65371    -0.00009    -0.00075
    2    -0.00005     6.66047    -0.00024
    3    -0.00262    -0.00016     5.78817
 ion   25
    1     6.65690     0.00001    -0.00010
    2     0.00001     6.71867    -0.03354
    3    -0.00023    -0.02291     5.79332
 ion   26
    1     6.65711    -0.00009     0.00026
    2    -0.00007     6.71993     0.03379
    3     0.00020     0.02309     5.79400
 ion   27
    1     6.66141     0.00009     0.00028
    2     0.00007     6.66439    -0.00029
    3     0.00017    -0.00016     5.78319
 ion   28
    1     6.61126     0.00002    -0.00160
    2    -0.00001     6.66074    -0.00009
    3    -0.03908    -0.00021     5.78558
 ion   29
    1     6.64405    -0.00196     0.00055
    2    -0.00182     6.65384     0.00013
    3     0.00039    -0.00497     5.78152
 ion   30
    1     6.64698     0.00197     0.00053
    2     0.00176     6.65794    -0.00001
    3     0.00039     0.00524     5.78158
 ion   31
    1     6.61259    -0.00004     0.00177
    2    -0.00007     6.66096     0.00027
    3     0.03931     0.00017     5.78628
 ion   32
    1     6.64810     0.00195    -0.00072
    2     0.00178     6.65678     0.00009
    3    -0.00058    -0.00500     5.78160
 ion   33
    1     6.64832    -0.00187    -0.00031
    2    -0.00172     6.65813    -0.00042
    3    -0.00017     0.00483     5.78228
 ion   34
    1     6.69524     0.00006    -0.00028
    2     0.00004     6.58993     0.00028
    3    -0.00016     0.00022     5.99100
 ion   35
    1     6.66132    -0.00000     0.00009
    2    -0.00004     6.63457    -0.00032
    3     0.00023     0.00425     5.77221
 ion   36
    1     6.66158    -0.00008    -0.00032
    2    -0.00007     6.63590    -0.00001
    3    -0.00014    -0.00443     5.77292
 ion   37
    1    -5.47102    -0.00004     0.00100
    2     0.00002    -1.11657    -0.00002
    3    -0.00085    -0.00004    -2.86157
 ion   38
    1    -5.53095     0.00187     0.00012
    2     0.00275    -1.12425     0.00006
    3    -0.00548     0.00012    -2.88914
 ion   39
    1    -5.53130    -0.00187     0.00007
    2    -0.00270    -1.12554    -0.00005
    3    -0.00548    -0.00010    -2.88970
 ion   40
    1    -5.46996     0.00011    -0.00106
    2     0.00011    -1.11660    -0.00002
    3     0.00051     0.00000    -2.86166
 ion   41
    1    -5.53007    -0.00185    -0.00015
    2    -0.00268    -1.12438     0.00010
    3     0.00517     0.00014    -2.88976
 ion   42
    1    -5.53020     0.00173    -0.00019
    2     0.00264    -1.12553    -0.00008
    3     0.00511    -0.00015    -2.88982
 ion   43
    1    -5.18104    -0.00024     0.00013
    2    -0.00012    -1.09577    -0.00005
    3     0.00029    -0.00009    -3.15895
 ion   44
    1    -5.56957    -0.00001     0.00006
    2     0.00000    -1.12441     0.00033
    3     0.00027    -0.00203    -2.88628
 ion   45
    1    -5.56972     0.00013     0.00011
    2     0.00009    -1.12560    -0.00032
    3     0.00030     0.00202    -2.88636
 ion   46
    1    -1.12269    -0.00004    -0.00004
    2    -0.00012    -5.53300     0.00005
    3    -0.00004     0.00031    -2.89062
 ion   47
    1    -1.12239     0.00000     0.00001
    2     0.00001    -5.53746     0.00045
    3    -0.00005     0.00218    -2.89372
 ion   48
    1    -1.12240     0.00005     0.00000
    2     0.00015    -5.53633    -0.00058
    3    -0.00003    -0.00249    -2.89379
 ion   49
    1    -1.11388    -0.00002    -0.04648
    2    -0.00000    -5.50753     0.00006
    3     0.00101     0.00027    -2.89628
 ion   50
    1    -1.12411    -0.00996    -0.00487
    2     0.00014    -5.53647     0.00111
    3     0.00126     0.00321    -2.89827
 ion   51
    1    -1.12423     0.00993    -0.00486
    2    -0.00018    -5.53557    -0.00113
    3     0.00127    -0.00350    -2.89887
 ion   52
    1    -1.11511     0.00006     0.04651
    2     0.00009    -5.50771     0.00008
    3    -0.00107     0.00030    -2.89636
 ion   53
    1    -1.12536     0.00992     0.00487
    2    -0.00017    -5.53679     0.00111
    3    -0.00125     0.00320    -2.89883
 ion   54
    1    -1.12539    -0.01001     0.00489
    2     0.00003    -5.53570    -0.00119
    3    -0.00128    -0.00350    -2.89892
 ion   55
    1    -1.12210     0.00002     0.00006
    2     0.00004    -5.54058     0.00266
    3     0.00008    -0.00730    -2.89007
 ion   56
    1    -1.12214     0.00009    -0.00001
    2     0.00013    -5.53950    -0.00265
    3     0.00002     0.00764    -2.89015
 ion   57
    1    -1.12229    -0.00005    -0.00000
    2    -0.00017    -5.53629    -0.00008
    3     0.00000    -0.00030    -2.89399
 ion   58
    1    -1.11015     0.07218    -0.02015
    2    -0.00710    -5.54763     0.01955
    3     0.00674     0.02098    -2.89253
 ion   59
    1    -1.11027    -0.07213    -0.02014
    2     0.00711    -5.54671    -0.01945
    3     0.00675    -0.02071    -2.89312
 ion   60
    1    -1.12375    -0.00000    -0.00266
    2     0.00001    -5.53220    -0.00007
    3     0.00011    -0.00025    -2.89752
 ion   61
    1    -1.11141    -0.07217     0.02014
    2     0.00709    -5.54793     0.01949
    3    -0.00677     0.02101    -2.89309
 ion   62
    1    -1.11148     0.07209     0.02017
    2    -0.00720    -5.54685    -0.01943
    3    -0.00674    -0.02067    -2.89318
 ion   63
    1    -1.12487     0.00010     0.00263
    2     0.00016    -5.53235    -0.00007
    3    -0.00010    -0.00030    -2.89756
 ion   64
    1    -5.53110    -0.00093    -0.00017
    2    -0.00196    -1.12150     0.00021
    3    -0.00139     0.00096    -2.89323
 ion   65
    1    -5.53142     0.00092    -0.00016
    2     0.00196    -1.12275    -0.00021
    3    -0.00141    -0.00099    -2.89378
 ion   66
    1    -5.53540    -0.00001    -0.00008
    2     0.00000    -1.12391     0.00003
    3    -0.00139     0.00003    -2.89396
 ion   67
    1    -5.53016     0.00094     0.00021
    2     0.00195    -1.12162     0.00020
    3     0.00166     0.00095    -2.89385
 ion   68
    1    -5.53035    -0.00108     0.00024
    2    -0.00206    -1.12277    -0.00021
    3     0.00172    -0.00094    -2.89390
 ion   69
    1    -5.53429     0.00013     0.00012
    2     0.00005    -1.12395     0.00001
    3     0.00167    -0.00001    -2.89402
 ion   70
    1    -5.57851     0.00000    -0.00013
    2    -0.00001    -1.12483     0.00059
    3    -0.00029     0.00505    -2.89234
 ion   71
    1    -5.57870     0.00013    -0.00008
    2     0.00009    -1.12599    -0.00058
    3    -0.00033    -0.00502    -2.89240
 ion   72
    1    -5.55245    -0.00014    -0.00007
    2    -0.00011    -1.12420     0.00001
    3    -0.00031    -0.00001    -2.89374
 ion   73
    1    -5.52586     0.00001     0.00007
    2    -0.00001    -1.12268     0.00006
    3     0.00029    -0.00030    -2.89569
 ion   74
    1    -5.52601     0.00013     0.00010
    2     0.00009    -1.12381    -0.00003
    3     0.00033     0.00031    -2.89575
 ion   75
    1    -5.53095    -0.00013     0.00008
    2    -0.00010    -1.12311    -0.00002
    3     0.00031     0.00000    -2.89463
 ion   76
    1    -5.52841     0.00233     0.00049
    2    -0.00561    -1.12265     0.00036
    3     0.00458     0.00248    -2.89789
 ion   77
    1    -5.52874    -0.00230     0.00052
    2     0.00560    -1.12390    -0.00033
    3     0.00464    -0.00245    -2.89847
 ion   78
    1    -5.53529    -0.00002     0.00017
    2     0.00001    -1.12238    -0.00001
    3     0.00088    -0.00003    -2.89641
 ion   79
    1    -5.52751    -0.00230    -0.00057
    2     0.00558    -1.12279     0.00036
    3    -0.00493     0.00247    -2.89851
 ion   80
    1    -5.52766     0.00218    -0.00058
    2    -0.00567    -1.12393    -0.00033
    3    -0.00497    -0.00247    -2.89855
 ion   81
    1    -5.53417     0.00015    -0.00025
    2     0.00008    -1.12241    -0.00002
    3    -0.00118     0.00000    -2.89651
 ion   82
    1    -1.11513     0.00119    -0.00134
    2    -0.00160    -5.53472     0.00464
    3     0.00087    -0.00906    -2.89848
 ion   83
    1    -1.11526    -0.00117    -0.00136
    2     0.00155    -5.53377    -0.00470
    3     0.00089     0.00875    -2.89908
 ion   84
    1    -1.11995    -0.00000    -0.00053
    2    -0.00000    -5.53535     0.00008
    3    -0.00029     0.00027    -2.89372
 ion   85
    1    -1.11633    -0.00118     0.00139
    2     0.00159    -5.53496     0.00463
    3    -0.00084    -0.00905    -2.89904
 ion   86
    1    -1.11641     0.00112     0.00138
    2    -0.00176    -5.53390    -0.00467
    3    -0.00087     0.00874    -2.89915
 ion   87
    1    -1.12108     0.00008     0.00055
    2     0.00012    -5.53551     0.00006
    3     0.00031     0.00030    -2.89380
 ion   88
    1    -1.13345    -0.00000    -0.00002
    2     0.00000    -5.49467     0.05258
    3    -0.00002    -0.01746    -2.89489
 ion   89
    1    -1.13347     0.00007     0.00000
    2     0.00016    -5.49355    -0.05265
    3    -0.00000     0.01709    -2.89493
 ion   90
    1    -1.12768    -0.00006    -0.00000
    2    -0.00017    -5.52919     0.00012
    3    -0.00001     0.00029    -2.89040
 ion   91
    1    -1.11607    -0.00002     0.00028
    2     0.00004    -5.54140    -0.00007
    3     0.00053    -0.00026    -2.89841
 ion   92
    1    -1.11985     0.00091     0.00032
    2     0.00015    -5.53707    -0.00042
    3    -0.00067     0.00286    -2.89354
 ion   93
    1    -1.11996    -0.00093     0.00034
    2    -0.00014    -5.53617     0.00047
    3    -0.00067    -0.00258    -2.89415
 ion   94
    1    -1.11721     0.00007    -0.00026
    2     0.00016    -5.54154    -0.00008
    3    -0.00054    -0.00031    -2.89847
 ion   95
    1    -1.12109    -0.00091    -0.00038
    2    -0.00010    -5.53740    -0.00043
    3     0.00061     0.00285    -2.89413
 ion   96
    1    -1.12114     0.00083    -0.00035
    2    -0.00000    -5.53632     0.00047
    3     0.00066    -0.00253    -2.89421
 ion   97
    1    -1.15002    -0.00008     0.00002
    2    -0.00014    -5.62912    -0.00010
    3     0.00000    -0.00027    -2.88599
 ion   98
    1    -1.12638    -0.00002     0.00003
    2     0.00001    -5.54299    -0.00080
    3     0.00003     0.00764    -2.88978
 ion   99
    1    -1.12640     0.00007    -0.00001
    2     0.00017    -5.54194     0.00089
    3    -0.00002    -0.00736    -2.88987
 ion  100
    1    -5.52942    -0.00012    -0.00008
    2    -0.00009    -1.12721     0.00001
    3    -0.00033     0.00000    -2.89370
 ion  101
    1    -5.52812     0.00002    -0.00005
    2     0.00001    -1.12127     0.00001
    3    -0.00030     0.00120    -2.89421
 ion  102
    1    -5.52828     0.00013    -0.00007
    2     0.00007    -1.12241    -0.00001
    3    -0.00035    -0.00118    -2.89428
 ion  103
    1    -5.49219    -0.00001    -0.00388
    2    -0.00000    -1.12982     0.00002
    3    -0.06812     0.00004    -2.89542
 ion  104
    1    -5.53219    -0.00212    -0.00025
    2    -0.00034    -1.11856     0.00014
    3     0.00242     0.00062    -2.89381
 ion  105
    1    -5.53247     0.00213    -0.00025
    2     0.00032    -1.11983    -0.00012
    3     0.00240    -0.00065    -2.89438
 ion  106
    1    -5.49106     0.00013     0.00402
    2     0.00007    -1.12983     0.00003
    3     0.06842     0.00001    -2.89551
 ion  107
    1    -5.53127     0.00211     0.00035
    2     0.00033    -1.11870     0.00015
    3    -0.00215     0.00064    -2.89441
 ion  108
    1    -5.53146    -0.00226     0.00036
    2    -0.00043    -1.11985    -0.00014
    3    -0.00213    -0.00063    -2.89449


--------------------------------------------------------------------------------------------------------


     LOOP+:  cpu time   1930.1108: real time   1978.7774
    4ORBIT:  cpu time      0.0000: real time      0.0000

 total amount of memory used by VASP MPI-rank0   266725. kBytes
=======================================================================

   base      :      30000. kBytes
   nonlr-proj:      19556. kBytes
   fftplans  :      10927. kBytes
   grid      :      23181. kBytes
   one-center:       1679. kBytes
   wavefun   :     181382. kBytes



 General timing and accounting informations for this job:
 ========================================================

                  Total CPU time used (sec):     1940.222
                            User time (sec):     1885.640
                          System time (sec):       54.582
                         Elapsed time (sec):     2008.762

                   Maximum memory used (kb):     1097468.
                   Average memory used (kb):          N/A

                          Minor page faults:       937980
                          Major page faults:           14
                 Voluntary context switches:       121168
