 vasp.6.3.0 20Jan22 (build Mar 29 2022 16:24:06) complex

 executed on             Bridges2 date 2023.01.12  19:12:42
 running on   32 total cores
 distrk:  each k-point on    4 cores,    8 groups
 distr:  one band on NCORE=   1 cores,    4 groups


--------------------------------------------------------------------------------------------------------


 INCAR:
   ICHARG = 2
   LWAVE = .FALSE.
   LCHARG = .FALSE.
   LVTOT = .FALSE.
   NCORE = 1
   KPAR = 8
   EDIFF = 1E-7
   NELM = 80
   PREC = Normal
   LREAL = Auto
   NELMIN = 4
   ENCUT = 400.0 eV
   ISPIN = 1
   ISMEAR = 0
   SIGMA = 0.10
   NSW = 0
   LEPSILON = .TRUE.
   LPEAD = .TRUE.
   ISYM = 0

 POTCAR:    PAW_PBE Ti_pv 07Sep2000
 POTCAR:    PAW_PBE O 08Apr2002
 -----------------------------------------------------------------------------
|                                                                             |
|           W    W    AA    RRRRR   N    N  II  N    N   GGGG   !!!           |
|           W    W   A  A   R    R  NN   N  II  NN   N  G    G  !!!           |
|           W    W  A    A  R    R  N N  N  II  N N  N  G       !!!           |
|           W WW W  AAAAAA  RRRRR   N  N N  II  N  N N  G  GGG   !            |
|           WW  WW  A    A  R   R   N   NN  II  N   NN  G    G                |
|           W    W  A    A  R    R  N    N  II  N    N   GGGG   !!!           |
|                                                                             |
|     For optimal performance we recommend to set                             |
|       NCORE = 2 up to number-of-cores-per-socket                            |
|     NCORE specifies how many cores store one orbital (NPAR=cpu/NCORE).      |
|     This setting can greatly improve the performance of VASP for DFT.       |
|     The default, NCORE=1 might be grossly inefficient on modern             |
|     multi-core architectures or massively parallel machines. Do your        |
|     own testing! More info at https://www.vasp.at/wiki/index.php/NCORE      |
|     Unfortunately you need to use the default for GW and RPA                |
|     calculations (for HF NCORE is supported but not extensively tested      |
|     yet).                                                                   |
|                                                                             |
 -----------------------------------------------------------------------------

 POTCAR:    PAW_PBE Ti_pv 07Sep2000
   VRHFIN =Ti: d3 s1
   LEXCH  = PE
   EATOM  =  1042.5995 eV,   76.6289 Ry

   TITEL  = PAW_PBE Ti_pv 07Sep2000
   LULTRA =        F    use ultrasoft PP ?
   IUNSCR =        1    unscreen: 0-lin 1-nonlin 2-no
   RPACOR =    2.200    partial core radius
   POMASS =   47.880; ZVAL   =   10.000    mass and valenz
   RCORE  =    2.500    outmost cutoff radius
   RWIGS  =    2.500; RWIGS  =    1.323    wigner-seitz radius (au A)
   ENMAX  =  222.335; ENMIN  =  166.751 eV
   RCLOC  =    1.701    cutoff for local pot
   LCOR   =        T    correct aug charges
   LPAW   =        T    paw PP
   EAUG   =  482.848
   DEXC   =    0.000
   RMAX   =    2.564    core radius for proj-oper
   RAUG   =    1.300    factor for augmentation sphere
   RDEP   =    2.538    radius for radial grids
   RDEPT  =    1.952    core radius for aug-charge

   Atomic configuration
    8 entries
     n  l   j            E        occ.
     1  0  0.50     -4865.3608   2.0000
     2  0  0.50      -533.1368   2.0000
     2  1  1.50      -440.5031   6.0000
     3  0  0.50       -59.3186   2.0000
     3  1  1.50       -35.7012   6.0000
     3  2  2.50        -1.9157   3.0000
     4  0  0.50        -3.7291   1.0000
     4  3  2.50        -1.3606   0.0000
   Description
     l       E           TYP  RCUT    TYP  RCUT
     1    -35.7012140     23  2.300
     1     -1.3605826     23  2.300
     2     -1.9156996     23  2.500
     2     -0.4063033     23  2.500
     0     -3.7290856     23  2.500
     0     20.4087390     23  2.500
  local pseudopotential read in
  partial core-charges read in
  partial kinetic energy density read in
  atomic valenz-charges read in
  non local Contribution for L=           1  read in
    real space projection operators read in
  non local Contribution for L=           1  read in
    real space projection operators read in
  non local Contribution for L=           2  read in
    real space projection operators read in
  non local Contribution for L=           2  read in
    real space projection operators read in
  non local Contribution for L=           0  read in
    real space projection operators read in
  non local Contribution for L=           0  read in
    real space projection operators read in
    PAW grid and wavefunctions read in

   number of l-projection  operators is LMAX  =           6
   number of lm-projection operators is LMMAX =          18

 POTCAR:    PAW_PBE O 08Apr2002
   VRHFIN =O: s2p4
   LEXCH  = PE
   EATOM  =   432.3788 eV,   31.7789 Ry

   TITEL  = PAW_PBE O 08Apr2002
   LULTRA =        F    use ultrasoft PP ?
   IUNSCR =        1    unscreen: 0-lin 1-nonlin 2-no
   RPACOR =    1.200    partial core radius
   POMASS =   16.000; ZVAL   =    6.000    mass and valenz
   RCORE  =    1.520    outmost cutoff radius
   RWIGS  =    1.550; RWIGS  =    0.820    wigner-seitz radius (au A)
   ENMAX  =  400.000; ENMIN  =  300.000 eV
   ICORE  =        2    local potential
   LCOR   =        T    correct aug charges
   LPAW   =        T    paw PP
   EAUG   =  605.392
   DEXC   =    0.000
   RMAX   =    1.553    core radius for proj-oper
   RAUG   =    1.300    factor for augmentation sphere
   RDEP   =    1.550    radius for radial grids
   RDEPT  =    1.329    core radius for aug-charge

   Atomic configuration
    4 entries
     n  l   j            E        occ.
     1  0  0.50      -514.6923   2.0000
     2  0  0.50       -23.9615   2.0000
     2  1  0.50        -9.0305   4.0000
     3  2  1.50        -9.5241   0.0000
   Description
     l       E           TYP  RCUT    TYP  RCUT
     0    -23.9615318     23  1.200
     0     -9.5240782     23  1.200
     1     -9.0304911     23  1.520
     1      8.1634956     23  1.520
     2     -9.5240782      7  1.500
  local pseudopotential read in
  partial core-charges read in
  partial kinetic energy density read in
  kinetic energy density of atom read in
  atomic valenz-charges read in
  non local Contribution for L=           0  read in
    real space projection operators read in
  non local Contribution for L=           0  read in
    real space projection operators read in
  non local Contribution for L=           1  read in
    real space projection operators read in
  non local Contribution for L=           1  read in
    real space projection operators read in
    PAW grid and wavefunctions read in

   number of l-projection  operators is LMAX  =           4
   number of lm-projection operators is LMMAX =           8

 Optimization of the real space projectors (new method)

 maximal supplied QI-value         = 15.12
 optimisation between [QCUT,QGAM] = [ 10.13, 20.41] = [ 28.73,116.64] Ry
 Optimized for a Real-space Cutoff    1.51 Angstroem

   l    n(q)    QCUT    max X(q) W(low)/X(q) W(high)/X(q)  e(spline)
   1      9    10.129     4.216    0.12E-04    0.72E-04    0.60E-07
   1      9    10.129     5.422    0.84E-04    0.21E-03    0.15E-06
   2      8    10.129    72.084    0.33E-03    0.35E-04    0.17E-06
   2      8    10.129    65.965    0.33E-03    0.37E-04    0.17E-06
   0      9    10.129    41.531    0.17E-03    0.19E-03    0.81E-07
   0      9    10.129    16.290    0.12E-03    0.14E-03    0.64E-07
 Optimization of the real space projectors (new method)

 maximal supplied QI-value         = 24.76
 optimisation between [QCUT,QGAM] = [ 10.15, 20.30] = [ 28.85,115.39] Ry
 Optimized for a Real-space Cutoff    1.38 Angstroem

   l    n(q)    QCUT    max X(q) W(low)/X(q) W(high)/X(q)  e(spline)
   0      8    10.150    20.381    0.22E-03    0.32E-03    0.29E-06
   0      8    10.150    15.268    0.23E-03    0.35E-03    0.30E-06
   1      8    10.150     5.964    0.46E-03    0.53E-03    0.21E-06
   1      8    10.150     5.382    0.38E-03    0.45E-03    0.19E-06
  PAW_PBE Ti_pv 07Sep2000               :
 energy of atom  1       EATOM=-1042.5995
 kinetic energy error for atom=    0.0037 (will be added to EATOM!!)
  PAW_PBE O 08Apr2002                   :
 energy of atom  2       EATOM= -432.3788
 kinetic energy error for atom=    0.1156 (will be added to EATOM!!)


 POSCAR: Ti4 O8
  positions in cartesian coordinates
  No initial velocities read in
 exchange correlation table for  LEXCH =        8
   RHO(1)=    0.500       N(1)  =     2000
   RHO(2)=  100.500       N(2)  =     4000



--------------------------------------------------------------------------------------------------------


 ion  position               nearest neighbor table
   1  0.167  0.167  0.500-  56 1.94  55 1.94  40 1.94  37 1.94 100 2.00  46 2.00  31 3.06  28 3.06
                            11 3.06  10 3.06
   2  0.167  0.500  0.500-  56 1.94  41 1.94  38 1.94  57 1.94 101 2.00  47 2.00  11 3.06  32 3.06
                            29 3.06  12 3.06
   3  0.167  0.833  0.500-  57 1.94  42 1.94  39 1.94  55 1.94 102 2.00  48 2.00  12 3.06  33 3.06
                            30 3.06  10 3.06
   4  0.500  0.167  0.500-  40 1.94  59 1.94  58 1.94  43 1.95 103 2.00  49 2.00  31 3.06  14 3.06
                            13 3.06  34 3.06
   5  0.500  0.500  0.500-  59 1.94  41 1.94  60 1.94  44 1.94 104 2.00  50 2.00  32 3.06  14 3.06
                            35 3.06  15 3.06
   6  0.500  0.833  0.500-  60 1.94  42 1.94  58 1.94  45 1.94 105 2.00  51 2.00  15 3.06  33 3.06
                            13 3.06  36 3.06
   7  0.833  0.167  0.500-  62 1.94  61 1.94  37 1.94  43 1.95 106 2.00  52 2.00  34 3.06  17 3.06
                            16 3.06  28 3.06
   8  0.833  0.500  0.500-  44 1.94  62 1.94  63 1.94  38 1.94 107 2.00  53 2.00  35 3.06  17 3.06
                            29 3.06  18 3.06
   9  0.833  0.833  0.500-  63 1.94  45 1.94  61 1.94  39 1.94 108 2.00  54 2.00  36 3.06  18 3.06
                            30 3.06  16 3.06
  10  0.167  0.000  0.750-  67 1.94  64 1.94  46 1.94  48 1.94  73 2.00  55 2.00  22 3.06  19 3.06
                             1 3.06   3 3.06
  11  0.167  0.333  0.750-  47 1.94  46 1.94  68 1.94  65 1.94  74 2.00  56 2.00   2 3.06  23 3.06
                            20 3.06   1 3.06
  12  0.167  0.667  0.750-  48 1.94  69 1.94  66 1.94  47 1.94  75 2.00  57 2.00   3 3.06  24 3.06
                            21 3.06   2 3.06
  13  0.500  0.000  0.750-  67 1.94  49 1.94  51 1.94  70 1.94  76 2.00  58 2.00  22 3.06   4 3.06
                            25 3.06   6 3.06
  14  0.500  0.333  0.750-  50 1.94  68 1.94  49 1.94  71 1.94  77 2.00  59 2.00  23 3.06   5 3.06
                             4 3.06  26 3.06
  15  0.500  0.667  0.750-  51 1.94  69 1.94  50 1.94  72 1.94  78 2.00  60 2.00   6 3.06  24 3.06
                            27 3.06   5 3.06
  16  0.833  0.000  0.750-  70 1.94  52 1.94  64 1.94  54 1.94  79 2.00  61 2.00  25 3.06   7 3.06
                            19 3.06   9 3.06
  17  0.833  0.333  0.750-  71 1.94  53 1.94  52 1.94  65 1.94  80 2.00  62 2.00  26 3.06   8 3.06
                             7 3.06  20 3.06
  18  0.833  0.667  0.750-  54 1.94  72 1.94  66 1.94  53 1.94  81 2.00  63 2.00  27 3.06   9 3.06
                            21 3.06   8 3.06
  19  0.000  0.000  0.000-  73 1.94  91 1.94  79 1.94  93 1.94  82 2.00  64 2.00  10 3.06  28 3.06
                            16 3.06  30 3.06
  20  0.000  0.333  0.000-  92 1.94  74 1.94  91 1.94  80 1.94  83 2.00  65 2.00  29 3.06  11 3.06
                            28 3.06  17 3.06
  21  0.000  0.667  0.000-  93 1.94  75 1.94  81 1.94  92 1.94  84 2.00  66 2.00  30 3.06  12 3.06
                            18 3.06  29 3.06
  22  0.333  0.000  0.000-  76 1.94  73 1.94  94 1.94  96 1.94  85 2.00  67 2.00  13 3.06  10 3.06
                            31 3.06  33 3.06
  23  0.333  0.333  0.000-  77 1.94  95 1.94  74 1.94  94 1.94  86 2.00  68 2.00  14 3.06  32 3.06
                            11 3.06  31 3.06
  24  0.333  0.667  0.000-  96 1.94  78 1.94  75 1.94  95 1.94  87 2.00  69 2.00  33 3.06  15 3.06
                            12 3.06  32 3.06
  25  0.667  0.000  0.000-  79 1.94  97 1.94  76 1.94  99 1.94  88 2.00  70 2.00  16 3.06  34 3.06
                            13 3.06  36 3.06
  26  0.667  0.333  0.000-  80 1.94  98 1.94  97 1.94  77 1.94  89 2.00  71 2.00  17 3.06  35 3.06
                            34 3.06  14 3.06
  27  0.667  0.667  0.000-  81 1.94  99 1.94  78 1.94  98 1.94  90 2.00  72 2.00  18 3.06  36 3.06
                            15 3.06  35 3.06
  28  0.000  0.167  0.250-  83 1.94  82 1.94 100 1.94 106 1.94  37 2.00  91 2.00   1 3.06  20 3.06
                            19 3.06   7 3.06
  29  0.000  0.500  0.250-  83 1.94 101 1.94  84 1.94 107 1.94  38 2.00  92 2.00  20 3.06   2 3.06
                             8 3.06  21 3.06
  30  0.000  0.833  0.250-  84 1.94 102 1.94  82 1.94 108 1.94  39 2.00  93 2.00  21 3.06   3 3.06
                             9 3.06  19 3.06
  31  0.333  0.167  0.250- 103 1.94  86 1.94  85 1.94 100 1.94  40 2.00  94 2.00   4 3.06   1 3.06
                            23 3.06  22 3.06
  32  0.333  0.500  0.250-  86 1.94 104 1.94 101 1.94  87 1.94  41 2.00  95 2.00   5 3.06  23 3.06
                             2 3.06  24 3.06
  33  0.333  0.833  0.250-  87 1.94 105 1.94 102 1.94  85 1.94  42 2.00  96 2.00  24 3.06   6 3.06
                             3 3.06  22 3.06
  34  0.667  0.167  0.250- 106 1.94  89 1.94  88 1.94 103 1.94  97 2.00  43 2.01   7 3.06  26 3.06
                            25 3.06   4 3.06
  35  0.667  0.500  0.250- 107 1.94  89 1.94  90 1.94 104 1.94  44 2.00  98 2.00   8 3.06  26 3.06
                             5 3.06  27 3.06
  36  0.667  0.833  0.250-  90 1.94 108 1.94  88 1.94 105 1.94  45 2.00  99 2.00   9 3.06  27 3.06
                            25 3.06   6 3.06
  37  0.000  0.167  0.458-   1 1.94   7 1.94  28 2.00
  38  0.000  0.500  0.458-   2 1.94   8 1.94  29 2.00
  39  0.000  0.833  0.458-   3 1.94   9 1.94  30 2.00
  40  0.333  0.167  0.458-   4 1.94   1 1.94  31 2.00
  41  0.333  0.500  0.458-   5 1.94   2 1.94  32 2.00
  42  0.333  0.833  0.458-   6 1.94   3 1.94  33 2.00
  43  0.667  0.184  0.458-   7 1.95   4 1.95  34 2.01
  44  0.667  0.500  0.458-   8 1.94   5 1.94  35 2.00
  45  0.667  0.833  0.458-   9 1.94   6 1.94  36 2.00
  46  0.167  0.167  0.708-  11 1.94  10 1.94   1 2.00
  47  0.167  0.500  0.708-  11 1.94  12 1.94   2 2.00
  48  0.167  0.833  0.708-  12 1.94  10 1.94   3 2.00
  49  0.500  0.167  0.708-  14 1.94  13 1.94   4 2.00
  50  0.500  0.500  0.708-  14 1.94  15 1.94   5 2.00
  51  0.500  0.833  0.708-  15 1.94  13 1.94   6 2.00
  52  0.833  0.167  0.708-  17 1.94  16 1.94   7 2.00
  53  0.833  0.500  0.708-  17 1.94  18 1.94   8 2.00
  54  0.833  0.833  0.708-  18 1.94  16 1.94   9 2.00
  55  0.167  0.000  0.542-   1 1.94   3 1.94  10 2.00
  56  0.167  0.333  0.542-   2 1.94   1 1.94  11 2.00
  57  0.167  0.667  0.542-   3 1.94   2 1.94  12 2.00
  58  0.500  0.000  0.542-   4 1.94   6 1.94  13 2.00
  59  0.500  0.333  0.542-   5 1.94   4 1.94  14 2.00
  60  0.500  0.667  0.542-   6 1.94   5 1.94  15 2.00
  61  0.833  0.000  0.542-   7 1.94   9 1.94  16 2.00
  62  0.833  0.333  0.542-   8 1.94   7 1.94  17 2.00
  63  0.833  0.667  0.542-   9 1.94   8 1.94  18 2.00
  64  0.000  0.000  0.792-  10 1.94  16 1.94  19 2.00
  65  0.000  0.333  0.792-  11 1.94  17 1.94  20 2.00
  66  0.000  0.667  0.792-  12 1.94  18 1.94  21 2.00
  67  0.333  0.000  0.792-  13 1.94  10 1.94  22 2.00
  68  0.333  0.333  0.792-  14 1.94  11 1.94  23 2.00
  69  0.333  0.667  0.792-  15 1.94  12 1.94  24 2.00
  70  0.667  0.000  0.792-  16 1.94  13 1.94  25 2.00
  71  0.667  0.333  0.792-  17 1.94  14 1.94  26 2.00
  72  0.667  0.667  0.792-  18 1.94  15 1.94  27 2.00
  73  0.167  0.000  0.958-  22 1.94  19 1.94  10 2.00
  74  0.167  0.333  0.958-  23 1.94  20 1.94  11 2.00
  75  0.167  0.667  0.958-  24 1.94  21 1.94  12 2.00
  76  0.500  0.000  0.958-  22 1.94  25 1.94  13 2.00
  77  0.500  0.333  0.958-  23 1.94  26 1.94  14 2.00
  78  0.500  0.667  0.958-  24 1.94  27 1.94  15 2.00
  79  0.833  0.000  0.958-  25 1.94  19 1.94  16 2.00
  80  0.833  0.333  0.958-  26 1.94  20 1.94  17 2.00
  81  0.833  0.667  0.958-  27 1.94  21 1.94  18 2.00
  82  0.000  0.000  0.208-  28 1.94  30 1.94  19 2.00
  83  0.000  0.333  0.208-  29 1.94  28 1.94  20 2.00
  84  0.000  0.667  0.208-  30 1.94  29 1.94  21 2.00
  85  0.333  0.000  0.208-  31 1.94  33 1.94  22 2.00
  86  0.333  0.333  0.208-  32 1.94  31 1.94  23 2.00
  87  0.333  0.667  0.208-  33 1.94  32 1.94  24 2.00
  88  0.667  0.000  0.208-  34 1.94  36 1.94  25 2.00
  89  0.667  0.333  0.208-  35 1.94  34 1.94  26 2.00
  90  0.667  0.667  0.208-  36 1.94  35 1.94  27 2.00
  91  0.000  0.167  0.042-  20 1.94  19 1.94  28 2.00
  92  0.000  0.500  0.042-  20 1.94  21 1.94  29 2.00
  93  0.000  0.833  0.042-  21 1.94  19 1.94  30 2.00
  94  0.333  0.167  0.042-  23 1.94  22 1.94  31 2.00
  95  0.333  0.500  0.042-  23 1.94  24 1.94  32 2.00
  96  0.333  0.833  0.042-  24 1.94  22 1.94  33 2.00
  97  0.667  0.167  0.042-  26 1.94  25 1.94  34 2.00
  98  0.667  0.500  0.042-  26 1.94  27 1.94  35 2.00
  99  0.667  0.833  0.042-  27 1.94  25 1.94  36 2.00
 100  0.167  0.167  0.292-  31 1.94  28 1.94   1 2.00
 101  0.167  0.500  0.292-  32 1.94  29 1.94   2 2.00
 102  0.167  0.833  0.292-  33 1.94  30 1.94   3 2.00
 103  0.500  0.167  0.292-  31 1.94  34 1.94   4 2.00
 104  0.500  0.500  0.292-  32 1.94  35 1.94   5 2.00
 105  0.500  0.833  0.292-  33 1.94  36 1.94   6 2.00
 106  0.833  0.167  0.292-  34 1.94  28 1.94   7 2.00
 107  0.833  0.500  0.292-  35 1.94  29 1.94   8 2.00
 108  0.833  0.833  0.292-  36 1.94  30 1.94   9 2.00


IMPORTANT INFORMATION: All symmetrisations will be switched off!
NOSYMM: (Re-)initialisation of all symmetry stuff for point group C_1.


----------------------------------------------------------------------------------------

                                     Primitive cell

  volume of cell :    1243.1447

  direct lattice vectors                    reciprocal lattice vectors
    11.376843452  0.000000000  0.000000000     0.087897843  0.000000000  0.000000000
     0.000000000 11.376843452  0.000000000     0.000000000  0.087897843  0.000000000
     0.000000000  0.000000000  9.604574204     0.000000000  0.000000000  0.104117057

  length of vectors
    11.376843452 11.376843452  9.604574204     0.087897843  0.087897843  0.104117057

  position of ions in fractional coordinates (direct lattice)
     0.166666672  0.166666672  0.500000000
     0.166666672  0.500000000  0.500000000
     0.166666672  0.833333313  0.500000000
     0.500000000  0.166666672  0.500000000
     0.500000000  0.500000000  0.500000000
     0.500000000  0.833333313  0.500000000
     0.833333313  0.166666672  0.500000000
     0.833333313  0.500000000  0.500000000
     0.833333313  0.833333313  0.500000000
     0.166666672  0.000000000  0.750000000
     0.166666672  0.333333343  0.750000000
     0.166666672  0.666666687  0.750000000
     0.500000000  0.000000000  0.750000000
     0.500000000  0.333333343  0.750000000
     0.500000000  0.666666687  0.750000000
     0.833333313  0.000000000  0.750000000
     0.833333313  0.333333343  0.750000000
     0.833333313  0.666666687  0.750000000
     0.000000000  0.000000000  0.000000000
     0.000000000  0.333333343  0.000000000
     0.000000000  0.666666687  0.000000000
     0.333333343  0.000000000  0.000000000
     0.333333343  0.333333343  0.000000000
     0.333333343  0.666666687  0.000000000
     0.666666687  0.000000000  0.000000000
     0.666666687  0.333333343  0.000000000
     0.666666687  0.666666687  0.000000000
     0.000000000  0.166666672  0.250000000
     0.000000000  0.500000000  0.250000000
     0.000000000  0.833333313  0.250000000
     0.333333343  0.166666672  0.250000000
     0.333333343  0.500000000  0.250000000
     0.333333343  0.833333313  0.250000000
     0.666666687  0.166666672  0.250000000
     0.666666687  0.500000000  0.250000000
     0.666666687  0.833333313  0.250000000
     0.000000000  0.166666672  0.457898587
     0.000000000  0.500000000  0.457898587
     0.000000000  0.833333313  0.457898587
     0.333333343  0.166666672  0.457898587
     0.333333343  0.500000000  0.457898587
     0.333333343  0.833333313  0.457898587
     0.666666687  0.184246240  0.457898587
     0.666666687  0.500000000  0.457898587
     0.666666687  0.833333313  0.457898587
     0.166666672  0.166666672  0.707898617
     0.166666672  0.500000000  0.707898617
     0.166666672  0.833333313  0.707898617
     0.500000000  0.166666672  0.707898617
     0.500000000  0.500000000  0.707898617
     0.500000000  0.833333313  0.707898617
     0.833333313  0.166666672  0.707898617
     0.833333313  0.500000000  0.707898617
     0.833333313  0.833333313  0.707898617
     0.166666672  0.000000000  0.542101383
     0.166666672  0.333333343  0.542101383
     0.166666672  0.666666687  0.542101383
     0.500000000  0.000000000  0.542101383
     0.500000000  0.333333343  0.542101383
     0.500000000  0.666666687  0.542101383
     0.833333313  0.000000000  0.542101383
     0.833333313  0.333333343  0.542101383
     0.833333313  0.666666687  0.542101383
     0.000000000  0.000000000  0.792101383
     0.000000000  0.333333343  0.792101383
     0.000000000  0.666666687  0.792101383
     0.333333343  0.000000000  0.792101383
     0.333333343  0.333333343  0.792101383
     0.333333343  0.666666687  0.792101383
     0.666666687  0.000000000  0.792101383
     0.666666687  0.333333343  0.792101383
     0.666666687  0.666666687  0.792101383
     0.166666672  0.000000000  0.957898617
     0.166666672  0.333333343  0.957898617
     0.166666672  0.666666687  0.957898617
     0.500000000  0.000000000  0.957898617
     0.500000000  0.333333343  0.957898617
     0.500000000  0.666666687  0.957898617
     0.833333313  0.000000000  0.957898617
     0.833333313  0.333333343  0.957898617
     0.833333313  0.666666687  0.957898617
     0.000000000  0.000000000  0.207898602
     0.000000000  0.333333343  0.207898602
     0.000000000  0.666666687  0.207898602
     0.333333343  0.000000000  0.207898602
     0.333333343  0.333333343  0.207898602
     0.333333343  0.666666687  0.207898602
     0.666666687  0.000000000  0.207898602
     0.666666687  0.333333343  0.207898602
     0.666666687  0.666666687  0.207898602
     0.000000000  0.166666672  0.042101406
     0.000000000  0.500000000  0.042101406
     0.000000000  0.833333313  0.042101406
     0.333333343  0.166666672  0.042101406
     0.333333343  0.500000000  0.042101406
     0.333333343  0.833333313  0.042101406
     0.666666687  0.166666672  0.042101406
     0.666666687  0.500000000  0.042101406
     0.666666687  0.833333313  0.042101406
     0.166666672  0.166666672  0.292101413
     0.166666672  0.500000000  0.292101413
     0.166666672  0.833333313  0.292101413
     0.500000000  0.166666672  0.292101413
     0.500000000  0.500000000  0.292101413
     0.500000000  0.833333313  0.292101413
     0.833333313  0.166666672  0.292101413
     0.833333313  0.500000000  0.292101413
     0.833333313  0.833333313  0.292101413

  ion indices of the primitive-cell ions
   primitive index   ion index
                 1           1
                 2           2
                 3           3
                 4           4
                 5           5
                 6           6
                 7           7
                 8           8
                 9           9
                10          10
                11          11
                12          12
                13          13
                14          14
                15          15
                16          16
                17          17
                18          18
                19          19
                20          20
                21          21
                22          22
                23          23
                24          24
                25          25
                26          26
                27          27
                28          28
                29          29
                30          30
                31          31
                32          32
                33          33
                34          34
                35          35
                36          36
                37          37
                38          38
                39          39
                40          40
                41          41
                42          42
                43          43
                44          44
                45          45
                46          46
                47          47
                48          48
                49          49
                50          50
                51          51
                52          52
                53          53
                54          54
                55          55
                56          56
                57          57
                58          58
                59          59
                60          60
                61          61
                62          62
                63          63
                64          64
                65          65
                66          66
                67          67
                68          68
                69          69
                70          70
                71          71
                72          72
                73          73
                74          74
                75          75
                76          76
                77          77
                78          78
                79          79
                80          80
                81          81
                82          82
                83          83
                84          84
                85          85
                86          86
                87          87
                88          88
                89          89
                90          90
                91          91
                92          92
                93          93
                94          94
                95          95
                96          96
                97          97
                98          98
                99          99
               100         100
               101         101
               102         102
               103         103
               104         104
               105         105
               106         106
               107         107
               108         108

----------------------------------------------------------------------------------------



 KPOINTS: K-Points

Automatic generation of k-mesh.
 Grid dimensions read from file:
 generate k-points for:    2    2    2

 Generating k-lattice:

  Cartesian coordinates                     Fractional coordinates (reciprocal lattice)
     0.043948922  0.000000000  0.000000000     0.500000000  0.000000000  0.000000000
     0.000000000  0.043948922  0.000000000     0.000000000  0.500000000  0.000000000
     0.000000000  0.000000000  0.052058529     0.000000000  0.000000000  0.500000000

  Length of vectors
     0.043948922  0.043948922  0.052058529

  Shift w.r.t. Gamma in fractional coordinates (k-lattice)
     0.500000000  0.500000000  0.500000000


 Subroutine IBZKPT returns following result:
 ===========================================

 Found      4 irreducible k-points:

 Following reciprocal coordinates:
            Coordinates               Weight
  0.250000  0.250000  0.250000      2.000000
 -0.250000  0.250000  0.250000      2.000000
 -0.250000 -0.250000  0.250000      2.000000
  0.250000 -0.250000  0.250000      2.000000

 Following cartesian coordinates:
            Coordinates               Weight
  0.021974  0.021974  0.026029      2.000000
 -0.021974  0.021974  0.026029      2.000000
 -0.021974 -0.021974  0.026029      2.000000
  0.021974 -0.021974  0.026029      2.000000


 Subroutine IBZKPT_HF returns following result:
 ==============================================

 Found      8 k-points in 1st BZ
 the following      8 k-points will be used (e.g. in the exchange kernel)
 Following reciprocal coordinates:   # in IRBZ
  0.250000  0.250000  0.250000    0.12500000   1 t-inv F
 -0.250000  0.250000  0.250000    0.12500000   2 t-inv F
 -0.250000 -0.250000  0.250000    0.12500000   3 t-inv F
  0.250000 -0.250000  0.250000    0.12500000   4 t-inv F
 -0.250000 -0.250000 -0.250000    0.12500000   1 t-inv T
  0.250000 -0.250000 -0.250000    0.12500000   2 t-inv T
  0.250000  0.250000 -0.250000    0.12500000   3 t-inv T
 -0.250000  0.250000 -0.250000    0.12500000   4 t-inv T


--------------------------------------------------------------------------------------------------------




 Dimension of arrays:
   k-points           NKPTS =      4   k-points in BZ     NKDIM =      4   number of bands    NBANDS=    476
   number of dos      NEDOS =    301   number of ions     NIONS =    108
   non local maximal  LDIM  =      6   non local SUM 2l+1 LMDIM =     18
   total plane-waves  NPLWV = 150528
   max r-space proj   IRMAX =   1791   max aug-charges    IRDMAX=   4900
   dimension x,y,z NGX =    56 NGY =   56 NGZ =   48
   dimension x,y,z NGXF=   112 NGYF=  112 NGZF=   96
   support grid    NGXF=   112 NGYF=  112 NGZF=   96
   ions per type =              36  72
   NGX,Y,Z   is equivalent  to a cutoff of   8.18,  8.18,  8.31 a.u.
   NGXF,Y,Z  is equivalent  to a cutoff of  16.37, 16.37, 16.62 a.u.

 SYSTEM =  unknown system
 POSCAR =  Ti4 O8

 Startparameter for this run:
   NWRITE =      2    write-flag & timer
   PREC   = normal    normal or accurate (medium, high low for compatibility)
   ISTART =      0    job   : 0-new  1-cont  2-samecut
   ICHARG =      2    charge: 1-file 2-atom 10-const
   ISPIN  =      1    spin polarized calculation?
   LNONCOLLINEAR =      F non collinear calculations
   LSORBIT =      F    spin-orbit coupling
   INIWAV =      1    electr: 0-lowe 1-rand  2-diag
   LASPH  =      F    aspherical Exc in radial PAW
 Electronic Relaxation 1
   ENCUT  =  400.0 eV  29.40 Ry    5.42 a.u.  18.55 18.55 15.66*2*pi/ulx,y,z
   ENINI  =  400.0     initial cutoff
   ENAUG  =  605.4 eV  augmentation charge cutoff
   NELM   =     80;   NELMIN=  4; NELMDL= -5     # of ELM steps
   EDIFF  = 0.1E-06   stopping-criterion for ELM
   LREAL  =      T    real-space projection
   NLSPLINE    = F    spline interpolate recip. space projectors
   LCOMPAT=      F    compatible to vasp.4.4
   GGA_COMPAT  = T    GGA compatible to vasp.4.4-vasp.4.6
   LMAXPAW     = -100 max onsite density
   LMAXMIX     =    2 max onsite mixed and CHGCAR
   VOSKOWN=      0    Vosko Wilk Nusair interpolation
   ROPT   =   -0.00050  -0.00050
 Ionic relaxation
   EDIFFG = 0.1E-05   stopping-criterion for IOM
   NSW    =      0    number of steps for IOM
   NBLOCK =      1;   KBLOCK =      1    inner block; outer block
   IBRION =     -1    ionic relax: 0-MD 1-quasi-New 2-CG
   NFREE  =      0    steps in history (QN), initial steepest desc. (CG)
   ISIF   =      2    stress and relaxation
   IWAVPR =     10    prediction:  0-non 1-charg 2-wave 3-comb
   ISYM   =      0    0-nonsym 1-usesym 2-fastsym
   LCORR  =      T    Harris-Foulkes like correction to forces

   POTIM  = 0.5000    time-step for ionic-motion
   TEIN   =    0.0    initial temperature
   TEBEG  =    0.0;   TEEND  =   0.0 temperature during run
   SMASS  =  -3.00    Nose mass-parameter (am)
   estimated Nose-frequenzy (Omega)   =  0.10E-29 period in steps = 0.13E+47 mass=  -0.296E-26a.u.
   SCALEE = 1.0000    scale energy and forces
   NPACO  =    256;   APACO  = 10.0  distance and # of slots for P.C.
   PSTRESS=    0.0 pullay stress

  Mass of Ions in am
   POMASS =  47.88 16.00
  Ionic Valenz
   ZVAL   =  10.00  6.00
  Atomic Wigner-Seitz radii
   RWIGS  =  -1.00 -1.00
  virtual crystal weights
   VCA    =   1.00  1.00
   NELECT =     792.0000    total number of electrons
   NUPDOWN=      -1.0000    fix difference up-down

 DOS related values:
   EMIN   =  10.00;   EMAX   =-10.00  energy-range for DOS
   EFERMI =   0.00
   ISMEAR =     0;   SIGMA  =   0.10  broadening in eV -4-tet -1-fermi 0-gaus

 Electronic relaxation 2 (details)
   IALGO  =     38    algorithm
   LDIAG  =      T    sub-space diagonalisation (order eigenvalues)
   LSUBROT=      F    optimize rotation matrix (better conditioning)
   TURBO    =      0    0=normal 1=particle mesh
   IRESTART =      0    0=no restart 2=restart with 2 vectors
   NREBOOT  =      0    no. of reboots
   NMIN     =      0    reboot dimension
   EREF     =   0.00    reference energy to select bands
   IMIX   =      4    mixing-type and parameters
     AMIX     =   0.40;   BMIX     =  1.00
     AMIX_MAG =   1.60;   BMIX_MAG =  1.00
     AMIN     =   0.10
     WC   =   100.;   INIMIX=   1;  MIXPRE=   1;  MAXMIX= -45

 Intra band minimization:
   WEIMIN = 0.0000     energy-eigenvalue tresh-hold
   EBREAK =  0.53E-10  absolut break condition
   DEPER  =   0.30     relativ break condition

   TIME   =   0.40     timestep for ELM

  volume/ion in A,a.u.               =      11.51        77.68
  Fermi-wavevector in a.u.,A,eV,Ry     =   1.408670  2.662001 26.998745  1.984352
  Thomas-Fermi vector in A             =   2.530804

 Write flags
   LWAVE        =      F    write WAVECAR
   LDOWNSAMPLE  =      F    k-point downsampling of WAVECAR
   LCHARG       =      F    write CHGCAR
   LVTOT        =      F    write LOCPOT, total local potential
   LVHAR        =      F    write LOCPOT, Hartree potential only
   LELF         =      F    write electronic localiz. function (ELF)
   LORBIT       =      0    0 simple, 1 ext, 2 COOP (PROOUT), +10 PAW based schemes


 Dipole corrections
   LMONO  =      F    monopole corrections only (constant potential shift)
   LDIPOL =      F    correct potential (dipole corrections)
   IDIPOL =      0    1-x, 2-y, 3-z, 4-all directions
   EPSILON=  1.0000000 bulk dielectric constant

 Exchange correlation treatment:
   GGA     =    --    GGA type
   LEXCH   =     8    internal setting for exchange type
   LIBXC   =     F    Libxc
   VOSKOWN =     0    Vosko Wilk Nusair interpolation
   LHFCALC =     F    Hartree Fock is set to
   LHFONE  =     F    Hartree Fock one center treatment
   AEXX    =    0.0000 exact exchange contribution

 Linear response parameters
   LEPSILON=     T    determine dielectric tensor
   LRPA    =     F    only Hartree local field effects (RPA)
   LNABLA  =     F    use nabla operator in PAW spheres
   LVEL    =     F    velocity operator in full k-point grid
   CSHIFT  =0.1000    complex shift for real part using Kramers Kronig
   OMEGAMAX=  -1.0    maximum frequency
   DEG_THRESHOLD= 0.2000000E-02 threshold for treating states as degnerate
   RTIME   =   -0.100 relaxation time in fs
  (WPLASMAI=    0.000 imaginary part of plasma frequency in eV, 0.658/RTIME)
   DFIELD  = 0.0000000 0.0000000 0.0000000 field for delta impulse in time

  Optional k-point grid parameters
   LKPOINTS_OPT  =     F    use optional k-point grid
   KPOINTS_OPT_MODE=     1    mode for optional k-point grid

 Orbital magnetization related:
   ORBITALMAG=     F  switch on orbital magnetization
   LCHIMAG   =     F  perturbation theory with respect to B field
   DQ        =  0.001000  dq finite difference perturbation B field
   LLRAUG    =     F  two centre corrections for induced B field

 PEAD related settings:
   LPEAD      =     T    switch on PEAD
   IPEAD      =     4    finite difference order for dpsi/dk
   LCALCPOL   =     F    calculate macroscopic polarization
   LCALCEPS   =     F    calculate dielectric tensor
   EFIELD_PEAD=    0.0000    0.0000    0.0000
   SKIP_EDOTP =     F
   LRPA       =     F
   SKIP_SCF   =     F


--------------------------------------------------------------------------------------------------------


 Static calculation
 charge density and potential will be updated during run
 non-spin polarized calculation
 Variant of blocked Davidson
 Davidson routine will perform the subspace rotation
 perform sub-space diagonalisation
    after iterative eigenvector-optimisation
 modified Broyden-mixing scheme, WC =      100.0
 initial mixing is a Kerker type mixing with AMIX =  0.4000 and BMIX =      1.0000
 Hartree-type preconditioning will be used
 using additional bands           80
 real space projection scheme for non local part
 use partial core corrections
 calculate Harris-corrections to forces
   (improved forces if not selfconsistent)
 use gradient corrections
 use of overlap-Matrix (Vanderbilt PP)
 Gauss-broadening in eV      SIGMA  =   0.10


--------------------------------------------------------------------------------------------------------


  energy-cutoff  :      400.00
  volume of cell :     1243.14
      direct lattice vectors                 reciprocal lattice vectors
    11.376843452  0.000000000  0.000000000     0.087897843  0.000000000  0.000000000
     0.000000000 11.376843452  0.000000000     0.000000000  0.087897843  0.000000000
     0.000000000  0.000000000  9.604574204     0.000000000  0.000000000  0.104117057

  length of vectors
    11.376843452 11.376843452  9.604574204     0.087897843  0.087897843  0.104117057



 k-points in units of 2pi/SCALE and weight: K-Points
   0.02197446  0.02197446  0.02602926       0.250
  -0.02197446  0.02197446  0.02602926       0.250
  -0.02197446 -0.02197446  0.02602926       0.250
   0.02197446 -0.02197446  0.02602926       0.250

 k-points in reciprocal lattice and weights: K-Points
   0.25000000  0.25000000  0.25000000       0.250
  -0.25000000  0.25000000  0.25000000       0.250
  -0.25000000 -0.25000000  0.25000000       0.250
   0.25000000 -0.25000000  0.25000000       0.250

 position of ions in fractional coordinates (direct lattice)
   0.16666667  0.16666667  0.50000000
   0.16666667  0.50000000  0.50000000
   0.16666667  0.83333331  0.50000000
   0.50000000  0.16666667  0.50000000
   0.50000000  0.50000000  0.50000000
   0.50000000  0.83333331  0.50000000
   0.83333331  0.16666667  0.50000000
   0.83333331  0.50000000  0.50000000
   0.83333331  0.83333331  0.50000000
   0.16666667  0.00000000  0.75000000
   0.16666667  0.33333334  0.75000000
   0.16666667  0.66666669  0.75000000
   0.50000000  0.00000000  0.75000000
   0.50000000  0.33333334  0.75000000
   0.50000000  0.66666669  0.75000000
   0.83333331  0.00000000  0.75000000
   0.83333331  0.33333334  0.75000000
   0.83333331  0.66666669  0.75000000
   0.00000000  0.00000000  0.00000000
   0.00000000  0.33333334  0.00000000
   0.00000000  0.66666669  0.00000000
   0.33333334  0.00000000  0.00000000
   0.33333334  0.33333334  0.00000000
   0.33333334  0.66666669  0.00000000
   0.66666669  0.00000000  0.00000000
   0.66666669  0.33333334  0.00000000
   0.66666669  0.66666669  0.00000000
   0.00000000  0.16666667  0.25000000
   0.00000000  0.50000000  0.25000000
   0.00000000  0.83333331  0.25000000
   0.33333334  0.16666667  0.25000000
   0.33333334  0.50000000  0.25000000
   0.33333334  0.83333331  0.25000000
   0.66666669  0.16666667  0.25000000
   0.66666669  0.50000000  0.25000000
   0.66666669  0.83333331  0.25000000
   0.00000000  0.16666667  0.45789859
   0.00000000  0.50000000  0.45789859
   0.00000000  0.83333331  0.45789859
   0.33333334  0.16666667  0.45789859
   0.33333334  0.50000000  0.45789859
   0.33333334  0.83333331  0.45789859
   0.66666669  0.18424624  0.45789859
   0.66666669  0.50000000  0.45789859
   0.66666669  0.83333331  0.45789859
   0.16666667  0.16666667  0.70789862
   0.16666667  0.50000000  0.70789862
   0.16666667  0.83333331  0.70789862
   0.50000000  0.16666667  0.70789862
   0.50000000  0.50000000  0.70789862
   0.50000000  0.83333331  0.70789862
   0.83333331  0.16666667  0.70789862
   0.83333331  0.50000000  0.70789862
   0.83333331  0.83333331  0.70789862
   0.16666667  0.00000000  0.54210138
   0.16666667  0.33333334  0.54210138
   0.16666667  0.66666669  0.54210138
   0.50000000  0.00000000  0.54210138
   0.50000000  0.33333334  0.54210138
   0.50000000  0.66666669  0.54210138
   0.83333331  0.00000000  0.54210138
   0.83333331  0.33333334  0.54210138
   0.83333331  0.66666669  0.54210138
   0.00000000  0.00000000  0.79210138
   0.00000000  0.33333334  0.79210138
   0.00000000  0.66666669  0.79210138
   0.33333334  0.00000000  0.79210138
   0.33333334  0.33333334  0.79210138
   0.33333334  0.66666669  0.79210138
   0.66666669  0.00000000  0.79210138
   0.66666669  0.33333334  0.79210138
   0.66666669  0.66666669  0.79210138
   0.16666667  0.00000000  0.95789862
   0.16666667  0.33333334  0.95789862
   0.16666667  0.66666669  0.95789862
   0.50000000  0.00000000  0.95789862
   0.50000000  0.33333334  0.95789862
   0.50000000  0.66666669  0.95789862
   0.83333331  0.00000000  0.95789862
   0.83333331  0.33333334  0.95789862
   0.83333331  0.66666669  0.95789862
   0.00000000  0.00000000  0.20789860
   0.00000000  0.33333334  0.20789860
   0.00000000  0.66666669  0.20789860
   0.33333334  0.00000000  0.20789860
   0.33333334  0.33333334  0.20789860
   0.33333334  0.66666669  0.20789860
   0.66666669  0.00000000  0.20789860
   0.66666669  0.33333334  0.20789860
   0.66666669  0.66666669  0.20789860
   0.00000000  0.16666667  0.04210141
   0.00000000  0.50000000  0.04210141
   0.00000000  0.83333331  0.04210141
   0.33333334  0.16666667  0.04210141
   0.33333334  0.50000000  0.04210141
   0.33333334  0.83333331  0.04210141
   0.66666669  0.16666667  0.04210141
   0.66666669  0.50000000  0.04210141
   0.66666669  0.83333331  0.04210141
   0.16666667  0.16666667  0.29210141
   0.16666667  0.50000000  0.29210141
   0.16666667  0.83333331  0.29210141
   0.50000000  0.16666667  0.29210141
   0.50000000  0.50000000  0.29210141
   0.50000000  0.83333331  0.29210141
   0.83333331  0.16666667  0.29210141
   0.83333331  0.50000000  0.29210141
   0.83333331  0.83333331  0.29210141

 position of ions in cartesian coordinates  (Angst):
   1.89614063  1.89614063  4.80228710
   1.89614063  5.68842173  4.80228710
   1.89614063  9.48070265  4.80228710
   5.68842173  1.89614063  4.80228710
   5.68842173  5.68842173  4.80228710
   5.68842173  9.48070265  4.80228710
   9.48070265  1.89614063  4.80228710
   9.48070265  5.68842173  4.80228710
   9.48070265  9.48070265  4.80228710
   1.89614063  0.00000000  7.20343065
   1.89614063  3.79228126  7.20343065
   1.89614063  7.58456253  7.20343065
   5.68842173  0.00000000  7.20343065
   5.68842173  3.79228126  7.20343065
   5.68842173  7.58456253  7.20343065
   9.48070265  0.00000000  7.20343065
   9.48070265  3.79228126  7.20343065
   9.48070265  7.58456253  7.20343065
   0.00000000  0.00000000  0.00000000
   0.00000000  3.79228126  0.00000000
   0.00000000  7.58456253  0.00000000
   3.79228126  0.00000000  0.00000000
   3.79228126  3.79228126  0.00000000
   3.79228126  7.58456253  0.00000000
   7.58456253  0.00000000  0.00000000
   7.58456253  3.79228126  0.00000000
   7.58456253  7.58456253  0.00000000
   0.00000000  1.89614063  2.40114355
   0.00000000  5.68842173  2.40114355
   0.00000000  9.48070265  2.40114355
   3.79228126  1.89614063  2.40114355
   3.79228126  5.68842173  2.40114355
   3.79228126  9.48070265  2.40114355
   7.58456253  1.89614063  2.40114355
   7.58456253  5.68842173  2.40114355
   7.58456253  9.48070265  2.40114355
   0.00000000  1.89614063  4.39792096
   0.00000000  5.68842173  4.39792096
   0.00000000  9.48070265  4.39792096
   3.79228126  1.89614063  4.39792096
   3.79228126  5.68842173  4.39792096
   3.79228126  9.48070265  4.39792096
   7.58456253  2.09614063  4.39792096
   7.58456253  5.68842173  4.39792096
   7.58456253  9.48070265  4.39792096
   1.89614063  1.89614063  6.79906479
   1.89614063  5.68842173  6.79906479
   1.89614063  9.48070265  6.79906479
   5.68842173  1.89614063  6.79906479
   5.68842173  5.68842173  6.79906479
   5.68842173  9.48070265  6.79906479
   9.48070265  1.89614063  6.79906479
   9.48070265  5.68842173  6.79906479
   9.48070265  9.48070265  6.79906479
   1.89614063  0.00000000  5.20665296
   1.89614063  3.79228126  5.20665296
   1.89614063  7.58456253  5.20665296
   5.68842173  0.00000000  5.20665296
   5.68842173  3.79228126  5.20665296
   5.68842173  7.58456253  5.20665296
   9.48070265  0.00000000  5.20665296
   9.48070265  3.79228126  5.20665296
   9.48070265  7.58456253  5.20665296
   0.00000000  0.00000000  7.60779651
   0.00000000  3.79228126  7.60779651
   0.00000000  7.58456253  7.60779651
   3.79228126  0.00000000  7.60779651
   3.79228126  3.79228126  7.60779651
   3.79228126  7.58456253  7.60779651
   7.58456253  0.00000000  7.60779651
   7.58456253  3.79228126  7.60779651
   7.58456253  7.58456253  7.60779651
   1.89614063  0.00000000  9.20020834
   1.89614063  3.79228126  9.20020834
   1.89614063  7.58456253  9.20020834
   5.68842173  0.00000000  9.20020834
   5.68842173  3.79228126  9.20020834
   5.68842173  7.58456253  9.20020834
   9.48070265  0.00000000  9.20020834
   9.48070265  3.79228126  9.20020834
   9.48070265  7.58456253  9.20020834
   0.00000000  0.00000000  1.99677755
   0.00000000  3.79228126  1.99677755
   0.00000000  7.58456253  1.99677755
   3.79228126  0.00000000  1.99677755
   3.79228126  3.79228126  1.99677755
   3.79228126  7.58456253  1.99677755
   7.58456253  0.00000000  1.99677755
   7.58456253  3.79228126  1.99677755
   7.58456253  7.58456253  1.99677755
   0.00000000  1.89614063  0.40436607
   0.00000000  5.68842173  0.40436607
   0.00000000  9.48070265  0.40436607
   3.79228126  1.89614063  0.40436607
   3.79228126  5.68842173  0.40436607
   3.79228126  9.48070265  0.40436607
   7.58456253  1.89614063  0.40436607
   7.58456253  5.68842173  0.40436607
   7.58456253  9.48070265  0.40436607
   1.89614063  1.89614063  2.80550970
   1.89614063  5.68842173  2.80550970
   1.89614063  9.48070265  2.80550970
   5.68842173  1.89614063  2.80550970
   5.68842173  5.68842173  2.80550970
   5.68842173  9.48070265  2.80550970
   9.48070265  1.89614063  2.80550970
   9.48070265  5.68842173  2.80550970
   9.48070265  9.48070265  2.80550970



--------------------------------------------------------------------------------------------------------


 k-point   1 :   0.2500 0.2500 0.2500  plane waves:   22590
 k-point   2 :  -0.2500 0.2500 0.2500  plane waves:   22590
 k-point   3 :  -0.2500-0.2500 0.2500  plane waves:   22590
 k-point   4 :   0.2500-0.2500 0.2500  plane waves:   22590

 maximum and minimum number of plane-waves per node :     22590    22590

 maximum number of plane-waves:     22590
 maximum index in each direction:
   IXMAX=   18   IYMAX=   18   IZMAX=   15
   IXMIN=  -18   IYMIN=  -18   IZMIN=  -15


 serial   3D FFT for wavefunctions
 parallel 3D FFT for charge:
    minimum data exchange during FFTs selected (reduces bandwidth)


 total amount of memory used by VASP MPI-rank0   266725. kBytes
=======================================================================

   base      :      30000. kBytes
   nonlr-proj:      19556. kBytes
   fftplans  :      10927. kBytes
   grid      :      23181. kBytes
   one-center:       1679. kBytes
   wavefun   :     181382. kBytes

     INWAV:  cpu time      0.0000: real time      0.0005
 Broyden mixing: mesh for mixing (old mesh)
   NGX = 37   NGY = 37   NGZ = 31
  (NGX  =112   NGY  =112   NGZ  = 96)
  gives a total of  42439 points

 initial charge density was supplied:
 charge density of overlapping atoms calculated
 number of electron     792.0000000 magnetization
 keeping initial charge density in first step


--------------------------------------------------------------------------------------------------------


 Maximum index for non-local projection operator         1743
 Maximum index for augmentation-charges         1189 (set IRDMAX)


--------------------------------------------------------------------------------------------------------


 First call to EWALD:  gamma=   0.165
 Maximum number of real-space cells 3x 3x 3
 Maximum number of reciprocal cells 3x 3x 3

    FEWALD:  cpu time      0.0308: real time      0.0352


--------------------------------------- Iteration      1(   1)  ---------------------------------------


    POTLOK:  cpu time      0.2340: real time      0.2370
    SETDIJ:  cpu time      0.0093: real time      0.0098
     EDDAV:  cpu time     14.2483: real time     14.3744
       DOS:  cpu time      0.0037: real time      0.0040
    --------------------------------------------
      LOOP:  cpu time     14.4954: real time     14.6252

 eigenvalue-minimisations  :  3824
 total energy-change (2. order) : 0.1155939E+05  (-0.3305491E+05)
 number of electron     792.0000000 magnetization
 augmentation part      792.0000000 magnetization

 Free energy of the ion-electron system (eV)
  ---------------------------------------------------
  alpha Z        PSCENC =      3563.47650690
  Ewald energy   TEWEN  =    -48592.14485479
  -Hartree energ DENC   =    -18838.40727625
  -exchange      EXHF   =         0.00000000
  -V(xc)+E(xc)   XCENC  =      3286.82052565
  PAW double counting   =     54431.09303398   -54537.79254336
  entropy T*S    EENTRO =        -0.14187584
  eigenvalues    EBANDS =      3590.08796532
  atomic energy  EATOM  =     68656.39924158
  Solvation  Ediel_sol  =         0.00000000
  ---------------------------------------------------
  free energy    TOTEN  =     11559.39072319 eV

  energy without entropy =    11559.53259903  energy(sigma->0) =    11559.46166111


--------------------------------------------------------------------------------------------------------




--------------------------------------- Iteration      1(   2)  ---------------------------------------


     EDDAV:  cpu time     13.2081: real time     13.3285
       DOS:  cpu time      0.0010: real time      0.0010
    --------------------------------------------
      LOOP:  cpu time     13.2091: real time     13.3295

 eigenvalue-minimisations  :  3808
 total energy-change (2. order) :-0.9986455E+04  (-0.9556012E+04)
 number of electron     792.0000000 magnetization
 augmentation part      792.0000000 magnetization

 Free energy of the ion-electron system (eV)
  ---------------------------------------------------
  alpha Z        PSCENC =      3563.47650690
  Ewald energy   TEWEN  =    -48592.14485479
  -Hartree energ DENC   =    -18838.40727625
  -exchange      EXHF   =         0.00000000
  -V(xc)+E(xc)   XCENC  =      3286.82052565
  PAW double counting   =     54431.09303398   -54537.79254336
  entropy T*S    EENTRO =        -0.28594314
  eigenvalues    EBANDS =     -6396.22297931
  atomic energy  EATOM  =     68656.39924158
  Solvation  Ediel_sol  =         0.00000000
  ---------------------------------------------------
  free energy    TOTEN  =      1572.93571127 eV

  energy without entropy =     1573.22165440  energy(sigma->0) =     1573.07868284


--------------------------------------------------------------------------------------------------------




--------------------------------------- Iteration      1(   3)  ---------------------------------------


     EDDAV:  cpu time     17.0517: real time     17.1935
       DOS:  cpu time      0.0012: real time      0.0012
    --------------------------------------------
      LOOP:  cpu time     17.0528: real time     17.1947

 eigenvalue-minimisations  :  4416
 total energy-change (2. order) :-0.2641881E+04  (-0.2570471E+04)
 number of electron     792.0000000 magnetization
 augmentation part      792.0000000 magnetization

 Free energy of the ion-electron system (eV)
  ---------------------------------------------------
  alpha Z        PSCENC =      3563.47650690
  Ewald energy   TEWEN  =    -48592.14485479
  -Hartree energ DENC   =    -18838.40727625
  -exchange      EXHF   =         0.00000000
  -V(xc)+E(xc)   XCENC  =      3286.82052565
  PAW double counting   =     54431.09303398   -54537.79254336
  entropy T*S    EENTRO =        -0.00000000
  eigenvalues    EBANDS =     -9038.39038816
  atomic energy  EATOM  =     68656.39924158
  Solvation  Ediel_sol  =         0.00000000
  ---------------------------------------------------
  free energy    TOTEN  =     -1068.94575445 eV

  energy without entropy =    -1068.94575445  energy(sigma->0) =    -1068.94575445


--------------------------------------------------------------------------------------------------------




--------------------------------------- Iteration      1(   4)  ---------------------------------------


     EDDAV:  cpu time     19.8688: real time     20.0324
       DOS:  cpu time      0.0022: real time      0.0023
    --------------------------------------------
      LOOP:  cpu time     19.8711: real time     20.0347

 eigenvalue-minimisations  :  5056
 total energy-change (2. order) :-0.2043746E+03  (-0.2032644E+03)
 number of electron     792.0000000 magnetization
 augmentation part      792.0000000 magnetization

 Free energy of the ion-electron system (eV)
  ---------------------------------------------------
  alpha Z        PSCENC =      3563.47650690
  Ewald energy   TEWEN  =    -48592.14485479
  -Hartree energ DENC   =    -18838.40727625
  -exchange      EXHF   =         0.00000000
  -V(xc)+E(xc)   XCENC  =      3286.82052565
  PAW double counting   =     54431.09303398   -54537.79254336
  entropy T*S    EENTRO =        -0.00000000
  eigenvalues    EBANDS =     -9242.76502505
  atomic energy  EATOM  =     68656.39924158
  Solvation  Ediel_sol  =         0.00000000
  ---------------------------------------------------
  free energy    TOTEN  =     -1273.32039134 eV

  energy without entropy =    -1273.32039134  energy(sigma->0) =    -1273.32039134


--------------------------------------------------------------------------------------------------------




--------------------------------------- Iteration      1(   5)  ---------------------------------------


     EDDAV:  cpu time     18.9984: real time     19.1559
       DOS:  cpu time      0.0013: real time      0.0013
    CHARGE:  cpu time      0.2352: real time      0.2449
    MIXING:  cpu time      0.0113: real time      0.0125
    --------------------------------------------
      LOOP:  cpu time     19.2462: real time     19.4147

 eigenvalue-minimisations  :  4936
 total energy-change (2. order) :-0.5381790E+01  (-0.5369164E+01)
 number of electron     792.0003049 magnetization
 augmentation part      202.2334775 magnetization

 Broyden mixing:
  rms(total) = 0.17229E+02    rms(broyden)= 0.17227E+02
  rms(prec ) = 0.19167E+02
  weight for this iteration     100.00

 Free energy of the ion-electron system (eV)
  ---------------------------------------------------
  alpha Z        PSCENC =      3563.47650690
  Ewald energy   TEWEN  =    -48592.14485479
  -Hartree energ DENC   =    -18838.40727625
  -exchange      EXHF   =         0.00000000
  -V(xc)+E(xc)   XCENC  =      3286.82052565
  PAW double counting   =     54431.09303398   -54537.79254336
  entropy T*S    EENTRO =        -0.00000000
  eigenvalues    EBANDS =     -9248.14681489
  atomic energy  EATOM  =     68656.39924158
  Solvation  Ediel_sol  =         0.00000000
  ---------------------------------------------------
  free energy    TOTEN  =     -1278.70218118 eV

  energy without entropy =    -1278.70218118  energy(sigma->0) =    -1278.70218118


--------------------------------------------------------------------------------------------------------




--------------------------------------- Iteration      1(   6)  ---------------------------------------


    POTLOK:  cpu time      0.1846: real time      0.1864
    SETDIJ:  cpu time      0.0335: real time      0.0340
     EDDAV:  cpu time     19.0861: real time     19.2397
       DOS:  cpu time      0.0010: real time      0.0010
    CHARGE:  cpu time      0.2259: real time      0.2341
    MIXING:  cpu time      0.0114: real time      0.0165
    --------------------------------------------
      LOOP:  cpu time     19.5426: real time     19.7118

 eigenvalue-minimisations  :  4976
 total energy-change (2. order) : 0.3023412E+03  (-0.1974379E+03)
 number of electron     792.0002458 magnetization
 augmentation part      214.1163912 magnetization

 Broyden mixing:
  rms(total) = 0.52993E+01    rms(broyden)= 0.52943E+01
  rms(prec ) = 0.58276E+01
  weight for this iteration     100.00

 eigenvalues of (default mixing * dielectric matrix)
  average eigenvalue GAMMA=   0.9646
  0.9646

 Free energy of the ion-electron system (eV)
  ---------------------------------------------------
  alpha Z        PSCENC =      3563.47650690
  Ewald energy   TEWEN  =    -48592.14485479
  -Hartree energ DENC   =    -19062.84114011
  -exchange      EXHF   =         0.00000000
  -V(xc)+E(xc)   XCENC  =      3337.79780535
  PAW double counting   =     68237.62176092   -68469.90590160
  entropy T*S    EENTRO =        -0.00000000
  eigenvalues    EBANDS =     -8646.76439645
  atomic energy  EATOM  =     68656.39924158
  Solvation  Ediel_sol  =         0.00000000
  ---------------------------------------------------
  free energy    TOTEN  =      -976.36097819 eV

  energy without entropy =     -976.36097819  energy(sigma->0) =     -976.36097819


--------------------------------------------------------------------------------------------------------




--------------------------------------- Iteration      1(   7)  ---------------------------------------


    POTLOK:  cpu time      0.1624: real time      0.1641
    SETDIJ:  cpu time      0.0406: real time      0.0410
     EDDAV:  cpu time     18.8756: real time     19.0309
       DOS:  cpu time      0.0006: real time      0.0006
    CHARGE:  cpu time      0.2270: real time      0.2336
    MIXING:  cpu time      0.0172: real time      0.0185
    --------------------------------------------
      LOOP:  cpu time     19.3233: real time     19.4886

 eigenvalue-minimisations  :  5344
 total energy-change (2. order) : 0.4335040E+01  (-0.2852536E+02)
 number of electron     792.0002648 magnetization
 augmentation part      207.3354055 magnetization

 Broyden mixing:
  rms(total) = 0.45894E+01    rms(broyden)= 0.45891E+01
  rms(prec ) = 0.47821E+01
  weight for this iteration     100.00

 eigenvalues of (default mixing * dielectric matrix)
  average eigenvalue GAMMA=   1.8487
  0.7376  2.9599

 Free energy of the ion-electron system (eV)
  ---------------------------------------------------
  alpha Z        PSCENC =      3563.47650690
  Ewald energy   TEWEN  =    -48592.14485479
  -Hartree energ DENC   =    -18905.26375491
  -exchange      EXHF   =         0.00000000
  -V(xc)+E(xc)   XCENC  =      3318.55612656
  PAW double counting   =     75222.55342969   -75465.84999542
  entropy T*S    EENTRO =        -0.00000000
  eigenvalues    EBANDS =     -8769.75263822
  atomic energy  EATOM  =     68656.39924158
  Solvation  Ediel_sol  =         0.00000000
  ---------------------------------------------------
  free energy    TOTEN  =      -972.02593860 eV

  energy without entropy =     -972.02593860  energy(sigma->0) =     -972.02593860


--------------------------------------------------------------------------------------------------------




--------------------------------------- Iteration      1(   8)  ---------------------------------------


    POTLOK:  cpu time      0.1618: real time      0.1631
    SETDIJ:  cpu time      0.0607: real time      0.0612
     EDDAV:  cpu time     18.3563: real time     18.5026
       DOS:  cpu time      0.0008: real time      0.0008
    CHARGE:  cpu time      0.2281: real time      0.2354
    MIXING:  cpu time      0.0116: real time      0.0117
    --------------------------------------------
      LOOP:  cpu time     18.8192: real time     18.9747

 eigenvalue-minimisations  :  5016
 total energy-change (2. order) :-0.1903730E+00  (-0.1112429E+02)
 number of electron     792.0002582 magnetization
 augmentation part      215.6052604 magnetization

 Broyden mixing:
  rms(total) = 0.33842E+01    rms(broyden)= 0.33840E+01
  rms(prec ) = 0.36853E+01
  weight for this iteration     100.00

 eigenvalues of (default mixing * dielectric matrix)
  average eigenvalue GAMMA=   1.2336
  2.1706  0.9307  0.5994

 Free energy of the ion-electron system (eV)
  ---------------------------------------------------
  alpha Z        PSCENC =      3563.47650690
  Ewald energy   TEWEN  =    -48592.14485479
  -Hartree energ DENC   =    -18527.47362197
  -exchange      EXHF   =         0.00000000
  -V(xc)+E(xc)   XCENC  =      3303.75098543
  PAW double counting   =     93862.63673619   -94178.43936011
  entropy T*S    EENTRO =        -0.00000000
  eigenvalues    EBANDS =     -9060.42194487
  atomic energy  EATOM  =     68656.39924158
  Solvation  Ediel_sol  =         0.00000000
  ---------------------------------------------------
  free energy    TOTEN  =      -972.21631163 eV

  energy without entropy =     -972.21631163  energy(sigma->0) =     -972.21631163


--------------------------------------------------------------------------------------------------------




--------------------------------------- Iteration      1(   9)  ---------------------------------------


    POTLOK:  cpu time      0.2150: real time      0.2177
    SETDIJ:  cpu time      0.0085: real time      0.0085
     EDDAV:  cpu time     18.8827: real time     19.0351
       DOS:  cpu time      0.0008: real time      0.0008
    CHARGE:  cpu time      0.2266: real time      0.2336
    MIXING:  cpu time      0.0161: real time      0.0162
    --------------------------------------------
      LOOP:  cpu time     19.3498: real time     19.5120

 eigenvalue-minimisations  :  5056
 total energy-change (2. order) : 0.5654457E+01  (-0.3515655E+01)
 number of electron     792.0002630 magnetization
 augmentation part      211.4578694 magnetization

 Broyden mixing:
  rms(total) = 0.24300E+00    rms(broyden)= 0.24223E+00
  rms(prec ) = 0.26671E+00
  weight for this iteration     100.00

 eigenvalues of (default mixing * dielectric matrix)
  average eigenvalue GAMMA=   1.3255
  2.2646  1.2519  1.1658  0.6196

 Free energy of the ion-electron system (eV)
  ---------------------------------------------------
  alpha Z        PSCENC =      3563.47650690
  Ewald energy   TEWEN  =    -48592.14485479
  -Hartree energ DENC   =    -18673.75182708
  -exchange      EXHF   =         0.00000000
  -V(xc)+E(xc)   XCENC  =      3308.70653839
  PAW double counting   =     88536.56267403   -88832.86875649
  entropy T*S    EENTRO =        -0.00000000
  eigenvalues    EBANDS =     -8932.94137721
  atomic energy  EATOM  =     68656.39924158
  Solvation  Ediel_sol  =         0.00000000
  ---------------------------------------------------
  free energy    TOTEN  =      -966.56185468 eV

  energy without entropy =     -966.56185468  energy(sigma->0) =     -966.56185468


--------------------------------------------------------------------------------------------------------




--------------------------------------- Iteration      1(  10)  ---------------------------------------


    POTLOK:  cpu time      0.2024: real time      0.2045
    SETDIJ:  cpu time      0.0262: real time      0.0266
     EDDAV:  cpu time     20.2257: real time     20.3853
       DOS:  cpu time      0.0007: real time      0.0007
    CHARGE:  cpu time      0.2269: real time      0.2327
    MIXING:  cpu time      0.0172: real time      0.0173
    --------------------------------------------
      LOOP:  cpu time     20.6992: real time     20.8670

 eigenvalue-minimisations  :  5216
 total energy-change (2. order) :-0.9116005E-01  (-0.1189935E+00)
 number of electron     792.0002617 magnetization
 augmentation part      211.6249846 magnetization

 Broyden mixing:
  rms(total) = 0.27724E+00    rms(broyden)= 0.27721E+00
  rms(prec ) = 0.31652E+00
  weight for this iteration     100.00

 eigenvalues of (default mixing * dielectric matrix)
  average eigenvalue GAMMA=   1.3563
  2.5463  1.8543  0.9956  0.7938  0.5916

 Free energy of the ion-electron system (eV)
  ---------------------------------------------------
  alpha Z        PSCENC =      3563.47650690
  Ewald energy   TEWEN  =    -48592.14485479
  -Hartree energ DENC   =    -18717.39501580
  -exchange      EXHF   =         0.00000000
  -V(xc)+E(xc)   XCENC  =      3311.95913403
  PAW double counting   =     88997.74438618   -89299.01894681
  entropy T*S    EENTRO =        -0.00000000
  eigenvalues    EBANDS =     -8887.67346602
  atomic energy  EATOM  =     68656.39924158
  Solvation  Ediel_sol  =         0.00000000
  ---------------------------------------------------
  free energy    TOTEN  =      -966.65301472 eV

  energy without entropy =     -966.65301472  energy(sigma->0) =     -966.65301472


--------------------------------------------------------------------------------------------------------




--------------------------------------- Iteration      1(  11)  ---------------------------------------


    POTLOK:  cpu time      0.1745: real time      0.1759
    SETDIJ:  cpu time      0.0400: real time      0.0402
     EDDAV:  cpu time     19.5345: real time     19.6954
       DOS:  cpu time      0.0009: real time      0.0009
    CHARGE:  cpu time      0.2326: real time      0.2345
    MIXING:  cpu time      0.0175: real time      0.0177
    --------------------------------------------
      LOOP:  cpu time     20.0000: real time     20.1646

 eigenvalue-minimisations  :  5224
 total energy-change (2. order) : 0.3946557E-01  (-0.2102096E-01)
 number of electron     792.0002619 magnetization
 augmentation part      211.3375860 magnetization

 Broyden mixing:
  rms(total) = 0.90409E-01    rms(broyden)= 0.90395E-01
  rms(prec ) = 0.11139E+00
  weight for this iteration     100.00

 eigenvalues of (default mixing * dielectric matrix)
  average eigenvalue GAMMA=   1.2871
  2.5537  1.6540  1.1571  1.1440  0.5794  0.6348

 Free energy of the ion-electron system (eV)
  ---------------------------------------------------
  alpha Z        PSCENC =      3563.47650690
  Ewald energy   TEWEN  =    -48592.14485479
  -Hartree energ DENC   =    -18736.87393191
  -exchange      EXHF   =         0.00000000
  -V(xc)+E(xc)   XCENC  =      3312.94788569
  PAW double counting   =     89178.94445505   -89481.49446805
  entropy T*S    EENTRO =        -0.00000000
  eigenvalues    EBANDS =     -8867.86838362
  atomic energy  EATOM  =     68656.39924158
  Solvation  Ediel_sol  =         0.00000000
  ---------------------------------------------------
  free energy    TOTEN  =      -966.61354915 eV

  energy without entropy =     -966.61354915  energy(sigma->0) =     -966.61354915


--------------------------------------------------------------------------------------------------------




--------------------------------------- Iteration      1(  12)  ---------------------------------------


    POTLOK:  cpu time      0.2104: real time      0.2124
    SETDIJ:  cpu time      0.0226: real time      0.0232
     EDDAV:  cpu time     20.5557: real time     20.7111
       DOS:  cpu time      0.0009: real time      0.0009
    CHARGE:  cpu time      0.2270: real time      0.2298
    MIXING:  cpu time      0.0149: real time      0.0150
    --------------------------------------------
      LOOP:  cpu time     21.0315: real time     21.1923

 eigenvalue-minimisations  :  5312
 total energy-change (2. order) : 0.5924614E-02  (-0.1573756E-01)
 number of electron     792.0002624 magnetization
 augmentation part      211.1855826 magnetization

 Broyden mixing:
  rms(total) = 0.47622E-01    rms(broyden)= 0.47548E-01
  rms(prec ) = 0.56682E-01
  weight for this iteration     100.00

 eigenvalues of (default mixing * dielectric matrix)
  average eigenvalue GAMMA=   1.2646
  2.5823  1.7078  1.7078  0.9703  0.7273  0.5782  0.5782

 Free energy of the ion-electron system (eV)
  ---------------------------------------------------
  alpha Z        PSCENC =      3563.47650690
  Ewald energy   TEWEN  =    -48592.14485479
  -Hartree energ DENC   =    -18733.46241071
  -exchange      EXHF   =         0.00000000
  -V(xc)+E(xc)   XCENC  =      3312.50323576
  PAW double counting   =     89210.99369492   -89512.84542690
  entropy T*S    EENTRO =        -0.00000000
  eigenvalues    EBANDS =     -8871.52761129
  atomic energy  EATOM  =     68656.39924158
  Solvation  Ediel_sol  =         0.00000000
  ---------------------------------------------------
  free energy    TOTEN  =      -966.60762454 eV

  energy without entropy =     -966.60762454  energy(sigma->0) =     -966.60762454


--------------------------------------------------------------------------------------------------------




--------------------------------------- Iteration      1(  13)  ---------------------------------------


    POTLOK:  cpu time      0.2120: real time      0.2141
    SETDIJ:  cpu time      0.0134: real time      0.0144
     EDDAV:  cpu time     20.0208: real time     20.1728
       DOS:  cpu time      0.0007: real time      0.0007
    CHARGE:  cpu time      0.2278: real time      0.2296
    MIXING:  cpu time      0.0182: real time      0.0183
    --------------------------------------------
      LOOP:  cpu time     20.4929: real time     20.6500

 eigenvalue-minimisations  :  5312
 total energy-change (2. order) : 0.1099617E-02  (-0.1172325E-02)
 number of electron     792.0002623 magnetization
 augmentation part      211.2259673 magnetization

 Broyden mixing:
  rms(total) = 0.21673E-01    rms(broyden)= 0.21669E-01
  rms(prec ) = 0.25835E-01
  weight for this iteration     100.00

 eigenvalues of (default mixing * dielectric matrix)
  average eigenvalue GAMMA=   1.2299
  2.5471  1.7720  1.7720  1.0076  0.7691  0.7691  0.5841  0.6185

 Free energy of the ion-electron system (eV)
  ---------------------------------------------------
  alpha Z        PSCENC =      3563.47650690
  Ewald energy   TEWEN  =    -48592.14485479
  -Hartree energ DENC   =    -18734.07866027
  -exchange      EXHF   =         0.00000000
  -V(xc)+E(xc)   XCENC  =      3312.57298406
  PAW double counting   =     89225.98094006   -89527.73030487
  entropy T*S    EENTRO =        -0.00000000
  eigenvalues    EBANDS =     -8871.08237758
  atomic energy  EATOM  =     68656.39924158
  Solvation  Ediel_sol  =         0.00000000
  ---------------------------------------------------
  free energy    TOTEN  =      -966.60652492 eV

  energy without entropy =     -966.60652492  energy(sigma->0) =     -966.60652492


--------------------------------------------------------------------------------------------------------




--------------------------------------- Iteration      1(  14)  ---------------------------------------


    POTLOK:  cpu time      0.2069: real time      0.2088
    SETDIJ:  cpu time      0.0194: real time      0.0195
     EDDAV:  cpu time     20.0078: real time     20.1597
       DOS:  cpu time      0.0007: real time      0.0007
    CHARGE:  cpu time      0.2278: real time      0.2291
    MIXING:  cpu time      0.0165: real time      0.0167
    --------------------------------------------
      LOOP:  cpu time     20.4791: real time     20.6345

 eigenvalue-minimisations  :  5344
 total energy-change (2. order) :-0.1191747E-03  (-0.1354771E-03)
 number of electron     792.0002623 magnetization
 augmentation part      211.2120032 magnetization

 Broyden mixing:
  rms(total) = 0.18937E-01    rms(broyden)= 0.18936E-01
  rms(prec ) = 0.22760E-01
  weight for this iteration     100.00

 eigenvalues of (default mixing * dielectric matrix)
  average eigenvalue GAMMA=   1.2593
  2.3609  2.3609  1.9336  1.0137  0.9247  0.9247  0.6890  0.5884  0.5373

 Free energy of the ion-electron system (eV)
  ---------------------------------------------------
  alpha Z        PSCENC =      3563.47650690
  Ewald energy   TEWEN  =    -48592.14485479
  -Hartree energ DENC   =    -18735.76563500
  -exchange      EXHF   =         0.00000000
  -V(xc)+E(xc)   XCENC  =      3312.66149074
  PAW double counting   =     89190.60411823   -89492.19595308
  entropy T*S    EENTRO =        -0.00000000
  eigenvalues    EBANDS =     -8869.64155868
  atomic energy  EATOM  =     68656.39924158
  Solvation  Ediel_sol  =         0.00000000
  ---------------------------------------------------
  free energy    TOTEN  =      -966.60664409 eV

  energy without entropy =     -966.60664409  energy(sigma->0) =     -966.60664409


--------------------------------------------------------------------------------------------------------




--------------------------------------- Iteration      1(  15)  ---------------------------------------


    POTLOK:  cpu time      0.2037: real time      0.2055
    SETDIJ:  cpu time      0.0166: real time      0.0166
     EDDAV:  cpu time     20.1140: real time     20.2674
       DOS:  cpu time      0.0007: real time      0.0007
    CHARGE:  cpu time      0.2372: real time      0.2386
    MIXING:  cpu time      0.0202: real time      0.0203
    --------------------------------------------
      LOOP:  cpu time     20.5924: real time     20.7491

 eigenvalue-minimisations  :  5344
 total energy-change (2. order) : 0.1222507E-03  (-0.1917414E-03)
 number of electron     792.0002623 magnetization
 augmentation part      211.2272491 magnetization

 Broyden mixing:
  rms(total) = 0.69548E-02    rms(broyden)= 0.69501E-02
  rms(prec ) = 0.83225E-02
  weight for this iteration     100.00

 eigenvalues of (default mixing * dielectric matrix)
  average eigenvalue GAMMA=   1.2511
  2.6792  2.5927  1.8713  0.9879  0.9879  0.8255  0.8255  0.6137  0.5638  0.5638

 Free energy of the ion-electron system (eV)
  ---------------------------------------------------
  alpha Z        PSCENC =      3563.47650690
  Ewald energy   TEWEN  =    -48592.14485479
  -Hartree energ DENC   =    -18736.98370414
  -exchange      EXHF   =         0.00000000
  -V(xc)+E(xc)   XCENC  =      3312.74180863
  PAW double counting   =     89171.13713157   -89472.58050696
  entropy T*S    EENTRO =        -0.00000000
  eigenvalues    EBANDS =     -8868.65214464
  atomic energy  EATOM  =     68656.39924158
  Solvation  Ediel_sol  =         0.00000000
  ---------------------------------------------------
  free energy    TOTEN  =      -966.60652184 eV

  energy without entropy =     -966.60652184  energy(sigma->0) =     -966.60652184


--------------------------------------------------------------------------------------------------------




--------------------------------------- Iteration      1(  16)  ---------------------------------------


    POTLOK:  cpu time      0.2230: real time      0.2256
    SETDIJ:  cpu time      0.0095: real time      0.0102
     EDDAV:  cpu time     19.6975: real time     19.8543
       DOS:  cpu time      0.0006: real time      0.0006
    CHARGE:  cpu time      0.2282: real time      0.2310
    MIXING:  cpu time      0.0223: real time      0.0224
    --------------------------------------------
      LOOP:  cpu time     20.1810: real time     20.3440

 eigenvalue-minimisations  :  5256
 total energy-change (2. order) : 0.7930576E-05  (-0.7258556E-04)
 number of electron     792.0002622 magnetization
 augmentation part      211.2392268 magnetization

 Broyden mixing:
  rms(total) = 0.51020E-02    rms(broyden)= 0.50982E-02
  rms(prec ) = 0.60294E-02
  weight for this iteration     100.00

 eigenvalues of (default mixing * dielectric matrix)
  average eigenvalue GAMMA=   1.2387
  2.7676  2.5362  1.6482  1.2878  0.9294  0.9294  0.9558  0.8266  0.6135  0.6135
  0.5177

 Free energy of the ion-electron system (eV)
  ---------------------------------------------------
  alpha Z        PSCENC =      3563.47650690
  Ewald energy   TEWEN  =    -48592.14485479
  -Hartree energ DENC   =    -18737.34807692
  -exchange      EXHF   =         0.00000000
  -V(xc)+E(xc)   XCENC  =      3312.77432744
  PAW double counting   =     89173.09483108   -89474.53117629
  entropy T*S    EENTRO =        -0.00000000
  eigenvalues    EBANDS =     -8868.32731292
  atomic energy  EATOM  =     68656.39924158
  Solvation  Ediel_sol  =         0.00000000
  ---------------------------------------------------
  free energy    TOTEN  =      -966.60651391 eV

  energy without entropy =     -966.60651391  energy(sigma->0) =     -966.60651391


--------------------------------------------------------------------------------------------------------




--------------------------------------- Iteration      1(  17)  ---------------------------------------


    POTLOK:  cpu time      0.1725: real time      0.1744
    SETDIJ:  cpu time      0.0510: real time      0.0513
     EDDAV:  cpu time     20.8950: real time     21.0588
       DOS:  cpu time      0.0007: real time      0.0007
    CHARGE:  cpu time      0.2329: real time      0.2358
    MIXING:  cpu time      0.0223: real time      0.0224
    --------------------------------------------
      LOOP:  cpu time     21.3743: real time     21.5433

 eigenvalue-minimisations  :  5344
 total energy-change (2. order) : 0.1363829E-04  (-0.2183836E-04)
 number of electron     792.0002622 magnetization
 augmentation part      211.2340076 magnetization

 Broyden mixing:
  rms(total) = 0.15734E-02    rms(broyden)= 0.15711E-02
  rms(prec ) = 0.18294E-02
  weight for this iteration     100.00

 eigenvalues of (default mixing * dielectric matrix)
  average eigenvalue GAMMA=   1.1999
  2.8509  2.4333  1.7145  1.3926  1.0084  0.8752  0.8752  0.7632  0.7632  0.5339
  0.6057  0.5823

 Free energy of the ion-electron system (eV)
  ---------------------------------------------------
  alpha Z        PSCENC =      3563.47650690
  Ewald energy   TEWEN  =    -48592.14485479
  -Hartree energ DENC   =    -18737.46532791
  -exchange      EXHF   =         0.00000000
  -V(xc)+E(xc)   XCENC  =      3312.77537739
  PAW double counting   =     89171.38247152   -89472.82885889
  entropy T*S    EENTRO =        -0.00000000
  eigenvalues    EBANDS =     -8868.20105607
  atomic energy  EATOM  =     68656.39924158
  Solvation  Ediel_sol  =         0.00000000
  ---------------------------------------------------
  free energy    TOTEN  =      -966.60650027 eV

  energy without entropy =     -966.60650027  energy(sigma->0) =     -966.60650027


--------------------------------------------------------------------------------------------------------




--------------------------------------- Iteration      1(  18)  ---------------------------------------


    POTLOK:  cpu time      0.2112: real time      0.2134
    SETDIJ:  cpu time      0.0195: real time      0.0197
     EDDAV:  cpu time     19.3369: real time     19.4916
       DOS:  cpu time      0.0006: real time      0.0006
    CHARGE:  cpu time      0.2314: real time      0.2334
    MIXING:  cpu time      0.0188: real time      0.0189
    --------------------------------------------
      LOOP:  cpu time     19.8184: real time     19.9777

 eigenvalue-minimisations  :  5328
 total energy-change (2. order) :-0.4995411E-05  (-0.2136272E-05)
 number of electron     792.0002622 magnetization
 augmentation part      211.2356497 magnetization

 Broyden mixing:
  rms(total) = 0.18012E-02    rms(broyden)= 0.18011E-02
  rms(prec ) = 0.21746E-02
  weight for this iteration     100.00

 eigenvalues of (default mixing * dielectric matrix)
  average eigenvalue GAMMA=   1.2170
  2.9327  2.3669  1.7617  1.7617  0.9158  0.9158  0.9999  0.9114  0.9114  0.6579
  0.5896  0.5896  0.5061

 Free energy of the ion-electron system (eV)
  ---------------------------------------------------
  alpha Z        PSCENC =      3563.47650690
  Ewald energy   TEWEN  =    -48592.14485479
  -Hartree energ DENC   =    -18737.39579849
  -exchange      EXHF   =         0.00000000
  -V(xc)+E(xc)   XCENC  =      3312.77142242
  PAW double counting   =     89173.72298117   -89475.18084668
[...]
      7.58456      3.79228      1.99678     0.00000 -0.01274 -2.89663 ( -0.63464  6.00000)
      7.58456      7.58456      1.99678    -0.00000 -0.01295 -2.89445 ( -0.63484  6.00000)
      0.00000      1.89614      0.40437     0.00018  0.00227 -2.89549 ( -0.63483  6.00000)
      0.00000      5.68842      0.40437     0.00004 -0.00160 -2.89549 ( -0.63480  6.00000)
      0.00000      9.48070      0.40437     0.00004 -0.00101 -2.89386 ( -0.63483  6.00000)
      3.79228      1.89614      0.40437    -0.00018  0.00222 -2.89555 ( -0.63484  6.00000)
      3.79228      5.68842      0.40437    -0.00007 -0.00162 -2.89610 ( -0.63481  6.00000)
      3.79228      9.48070      0.40437    -0.00003 -0.00092 -2.89396 ( -0.63484  6.00000)
      7.58456      1.89614      0.40437     0.00001 -0.01509 -2.89833 ( -0.63478  6.00000)
      7.58456      5.68842      0.40437     0.00003 -0.00079 -2.89347 ( -0.63481  6.00000)
      7.58456      9.48070      0.40437     0.00001 -0.00319 -2.89564 ( -0.63484  6.00000)
      1.89614      1.89614      2.80551    -0.00032 -0.00016 -2.89544 ( -0.63484  6.00000)
      1.89614      5.68842      2.80551    -0.00028  0.00001 -2.89213 ( -0.63484  6.00000)
      1.89614      9.48070      2.80551    -0.00027 -0.00004 -2.89644 ( -0.63483  6.00000)
      5.68842      1.89614      2.80551    -0.00764 -0.00054 -2.89402 ( -0.63473  6.00000)
      5.68842      5.68842      2.80551     0.00014  0.00012 -2.89223 ( -0.63480  6.00000)
      5.68842      9.48070      2.80551    -0.00057 -0.00010 -2.89565 ( -0.63481  6.00000)
      9.48070      1.89614      2.80551     0.00797 -0.00053 -2.89413 ( -0.63476  6.00000)
      9.48070      5.68842      2.80551     0.00014  0.00010 -2.89284 ( -0.63483  6.00000)
      9.48070      9.48070      2.80551     0.00087 -0.00010 -2.89572 ( -0.63484  6.00000)
 -----------------------------------------------------------------------------------------
    total drift (improves with k-points):  -0.00001 -0.00014 -0.07305




--------------------------------------------------------------------------------------------------------




 MACROSCOPIC STATIC DIELECTRIC TENSOR (including local field effects in DFT)
 ------------------------------------------------------
           6.961143    -0.000006    -0.000003
          -0.000003     6.960050     0.001756
          -0.000006     0.001757     6.375137
 ------------------------------------------------------



--------------------------------------------------------------------------------------------------------




--------------------------------------------------------------------------------------------------------




 MACROSCOPIC STATIC DIELECTRIC TENSOR (including local field effects in DFT)
 ------------------------------------------------------
           6.961143    -0.000006    -0.000003
          -0.000003     6.960050     0.001756
          -0.000006     0.001757     6.375137
 ------------------------------------------------------


 PIEZOELECTRIC TENSOR (including local field effects)  for field in x, y, z        (e  Angst)
          XX          YY          ZZ          XY          YZ          ZX
  --------------------------------------------------------------------------------
  x     0.00177     0.00125     0.00009    -1.10780    -0.00051     0.01411
  y     0.12102     0.00921     0.12603     0.00017     0.01692    -0.00049
  z    -0.04767    -0.01445     0.08473    -0.00003    -0.31927    -0.00006

 PIEZOELECTRIC TENSOR (including local field effects)  for field in x, y, z        (C/m^2)
          XX          YY          ZZ          XY          YZ          ZX
  --------------------------------------------------------------------------------
  x     0.00002     0.00002     0.00000    -0.01428    -0.00001     0.00018
  y     0.00156     0.00012     0.00162     0.00000     0.00022    -0.00001
  z    -0.00061    -0.00019     0.00109    -0.00000    -0.00411    -0.00000

 BORN EFFECTIVE CHARGES (including local field effects) (in |e|, cummulative output)
 ---------------------------------------------------------------------------------
 ion    1
    1     6.67197     0.00005     0.00027
    2     0.00004     6.66186    -0.01104
    3     0.00016    -0.00468     5.78820
 ion    2
    1     6.66638    -0.00002    -0.00016
    2     0.00004     6.65281     0.00848
    3    -0.00027     0.00049     5.78535
 ion    3
    1     6.65846    -0.00008     0.00028
    2    -0.00006     6.66859     0.00790
    3     0.00014     0.00015     5.78916
 ion    4
    1     6.61930     0.26272     0.01635
    2     0.06775     6.65932    -0.01187
    3     0.00979    -0.03440     5.77656
 ion    5
    1     6.64789    -0.02434     0.00906
    2    -0.00894     6.66915     0.00340
    3    -0.00440    -0.02092     5.78264
 ion    6
    1     6.66238    -0.01563    -0.00417
    2    -0.00467     6.65139     0.00285
    3     0.00410    -0.02088     5.78910
 ion    7
    1     6.62079    -0.26274    -0.01665
    2    -0.06789     6.65956    -0.01225
    3    -0.00991    -0.03485     5.77726
 ion    8
    1     6.65199     0.02443    -0.00903
    2     0.00900     6.67216     0.00340
    3     0.00464    -0.02089     5.78270
 ion    9
    1     6.66375     0.01576     0.00387
    2     0.00486     6.65164     0.00332
    3    -0.00427    -0.02041     5.78979
 ion   10
    1     6.66181     0.00001     0.00013
    2    -0.00007     6.66591     0.00212
    3     0.00028    -0.00162     5.78867
 ion   11
    1     6.66513    -0.00011    -0.00024
    2    -0.00006     6.65323     0.00507
    3    -0.00015    -0.00131     5.78528
 ion   12
    1     6.66176     0.00003    -0.00031
    2     0.00001     6.66154    -0.00306
    3    -0.00015     0.00351     5.78829
 ion   13
    1     6.66095     0.00556     0.00977
    2     0.00129     6.66887    -0.00780
    3     0.00389    -0.00920     5.76897
 ion   14
    1     6.65067     0.00263    -0.01873
    2     0.00053     6.64430    -0.00701
    3    -0.00328    -0.00387     5.81143
 ion   15
    1     6.65878    -0.00682    -0.00151
    2    -0.00118     6.66229    -0.00184
    3     0.00021     0.01040     5.78733
 ion   16
    1     6.66500    -0.00562    -0.00991
    2    -0.00135     6.67184    -0.00773
    3    -0.00420    -0.00917     5.76905
 ion   17
    1     6.65198    -0.00255     0.01904
    2    -0.00060     6.64456    -0.00742
    3     0.00343    -0.00428     5.81216
 ion   18
    1     6.66010     0.00669     0.00184
    2     0.00108     6.66247    -0.00147
    3    -0.00003     0.01084     5.78803
 ion   19
    1     6.65337    -0.00098     0.00233
    2    -0.00303     6.66145    -0.00495
    3    -0.00283    -0.00025     5.78346
 ion   20
    1     6.66519     0.00046    -0.00268
    2    -0.00361     6.65439    -0.00770
    3     0.00259    -0.00162     5.79473
 ion   21
    1     6.66020     0.00089    -0.00042
    2     0.00142     6.66113     0.00459
    3    -0.00001     0.00204     5.78804
 ion   22
    1     6.65742     0.00097    -0.00227
    2     0.00308     6.66445    -0.00497
    3     0.00302    -0.00030     5.78351
 ion   23
    1     6.66654    -0.00038     0.00238
    2     0.00371     6.65466    -0.00729
    3    -0.00281    -0.00117     5.79544
 ion   24
    1     6.66153    -0.00096     0.00014
    2    -0.00143     6.66137     0.00422
    3    -0.00022     0.00160     5.78876
 ion   25
    1     6.65780    -0.00004    -0.00014
    2    -0.00000     6.68327     0.00583
    3    -0.00027     0.00546     5.77768
 ion   26
    1     6.66063    -0.00008     0.00028
    2    -0.00008     6.63176     0.00668
    3     0.00016    -0.00432     5.80832
 ion   27
    1     6.66032     0.00012     0.00028
    2     0.00006     6.66185     0.00680
    3     0.00017     0.00271     5.78883
 ion   28
    1     6.65788    -0.00547    -0.00501
    2    -0.00139     6.66050     0.01437
    3    -0.00252     0.00428     5.78769
 ion   29
    1     6.66404     0.00161     0.00266
    2     0.00558     6.65081    -0.01199
    3     0.00017     0.00040     5.78824
 ion   30
    1     6.65378     0.00077    -0.00176
    2     0.00417     6.66757    -0.01031
    3    -0.00041     0.00193     5.78665
 ion   31
    1     6.65918     0.00540     0.00526
    2     0.00127     6.66067     0.01470
    3     0.00268     0.00464     5.78837
 ion   32
    1     6.66813    -0.00163    -0.00280
    2    -0.00565     6.65376    -0.01197
    3    -0.00043     0.00039     5.78832
 ion   33
    1     6.65508    -0.00068     0.00198
    2    -0.00419     6.66779    -0.01072
    3     0.00057     0.00154     5.78737
 ion   34
    1     6.63231     0.00008    -0.00029
    2     0.00004     6.65148     0.12036
    3    -0.00018     0.19373     5.75782
 ion   35
    1     6.66428    -0.00002     0.00012
    2    -0.00001     6.66601    -0.02339
    3     0.00026     0.01860     5.79225
 ion   36
    1     6.65638    -0.00006    -0.00028
    2    -0.00008     6.65821    -0.01684
    3    -0.00018     0.01970     5.78027
 ion   37
    1    -5.53907    -0.00050     0.00421
    2     0.02390    -1.12160    -0.01318
    3     0.00067    -0.01130    -2.89102
 ion   38
    1    -5.54232    -0.00009    -0.00404
    2    -0.01490    -1.12216     0.00431
    3    -0.00202    -0.00011    -2.89308
 ion   39
    1    -5.53539     0.00020     0.00323
    2    -0.01170    -1.12352     0.00342
    3     0.00164    -0.00004    -2.89368
 ion   40
    1    -5.53808     0.00059    -0.00425
    2    -0.02375    -1.12164    -0.01315
    3    -0.00097    -0.01123    -2.89114
 ion   41
    1    -5.54141     0.00009     0.00408
    2     0.01488    -1.12229     0.00433
    3     0.00178    -0.00013    -2.89371
 ion   42
    1    -5.53426    -0.00031    -0.00329
    2     0.01165    -1.12355     0.00338
    3    -0.00189    -0.00006    -2.89378
 ion   43
    1    -5.42970    -0.00017     0.00010
    2    -0.00003    -1.14021    -0.05243
    3     0.00033    -0.05219    -2.84777
 ion   44
    1    -5.52592    -0.00000     0.00008
    2     0.00001    -1.12370     0.00496
    3     0.00027    -0.00006    -2.89701
 ion   45
    1    -5.53927     0.00007     0.00009
    2     0.00005    -1.12457     0.00269
    3     0.00030     0.00091    -2.88981
 ion   46
    1    -1.12430    -0.00005    -0.00002
    2    -0.00014    -5.53542     0.00819
    3    -0.00000     0.00438    -2.89341
 ion   47
    1    -1.12330     0.00004     0.00001
    2     0.00006    -5.53390    -0.00461
    3    -0.00005    -0.00215    -2.89416
 ion   48
    1    -1.12395     0.00005    -0.00003
    2     0.00019    -5.54123    -0.00452
    3    -0.00001    -0.00258    -2.89337
 ion   49
    1    -1.12219    -0.00912     0.00287
    2     0.00917    -5.53370     0.01973
    3     0.00094     0.02339    -2.89384
 ion   50
    1    -1.12064     0.00742     0.00410
    2    -0.00219    -5.53184    -0.01436
    3    -0.00081    -0.01213    -2.89067
 ion   51
    1    -1.12307     0.00481    -0.00237
    2    -0.00177    -5.54344    -0.01228
    3     0.00028    -0.00999    -2.89501
 ion   52
    1    -1.12334     0.00919    -0.00284
    2    -0.00900    -5.53389     0.01969
    3    -0.00096     0.02342    -2.89390
 ion   53
    1    -1.12190    -0.00744    -0.00409
    2     0.00215    -5.53205    -0.01435
    3     0.00083    -0.01215    -2.89125
 ion   54
    1    -1.12421    -0.00481     0.00239
    2     0.00162    -5.54359    -0.01238
    3    -0.00031    -0.01006    -2.89504
 ion   55
    1    -1.12512     0.00003     0.00002
    2     0.00003    -5.54776    -0.00126
    3     0.00001     0.00083    -2.89305
 ion   56
    1    -1.12241     0.00008    -0.00003
    2     0.00010    -5.52723    -0.00423
    3    -0.00000     0.00187    -2.89327
 ion   57
    1    -1.12339    -0.00005     0.00001
    2    -0.00018    -5.53754     0.00221
    3     0.00001    -0.00105    -2.89415
 ion   58
    1    -1.10022     0.02455    -0.01107
    2    -0.02171    -5.53502     0.02140
    3    -0.00014     0.00407    -2.87980
 ion   59
    1    -1.14834     0.03832     0.01623
    2    -0.02781    -5.53321     0.02553
    3    -0.00061     0.00649    -2.90883
 ion   60
    1    -1.12202     0.01112     0.00036
    2     0.00133    -5.53923     0.00258
    3    -0.00006     0.01285    -2.89369
 ion   61
    1    -1.10160    -0.02459     0.01106
    2     0.02171    -5.53541     0.02130
    3     0.00012     0.00407    -2.88041
 ion   62
    1    -1.14942    -0.03839    -0.01624
    2     0.02773    -5.53339     0.02553
    3     0.00062     0.00656    -2.90888
 ion   63
    1    -1.12314    -0.01105    -0.00037
    2    -0.00117    -5.53932     0.00255
    3     0.00005     0.01275    -2.89376
 ion   64
    1    -5.53813     0.00027    -0.00244
    2     0.00340    -1.12209     0.00138
    3     0.00548     0.00047    -2.89245
 ion   65
    1    -5.54052    -0.00029     0.00199
    2     0.00453    -1.12328     0.00132
    3    -0.00895    -0.00052    -2.89686
 ion   66
    1    -5.53843    -0.00003     0.00018
    2    -0.00370    -1.12364    -0.00075
    3    -0.00001    -0.00001    -2.89408
 ion   67
    1    -5.53725    -0.00029     0.00251
    2    -0.00343    -1.12222     0.00139
    3    -0.00520     0.00046    -2.89307
 ion   68
    1    -5.53953     0.00015    -0.00195
    2    -0.00461    -1.12329     0.00132
    3     0.00924    -0.00047    -2.89698
 ion   69
    1    -5.53728     0.00015    -0.00013
    2     0.00383    -1.12367    -0.00077
    3     0.00032    -0.00003    -2.89418
 ion   70
    1    -5.53940     0.00002    -0.00008
    2     0.00005    -1.12236    -0.00365
    3    -0.00023     0.00028    -2.88699
 ion   71
    1    -5.52655     0.00014    -0.00011
    2     0.00009    -1.12345    -0.00619
    3    -0.00030    -0.00032    -2.90697
 ion   72
    1    -5.53488    -0.00014    -0.00009
    2    -0.00009    -1.12377    -0.00099
    3    -0.00030    -0.00001    -2.89438
 ion   73
    1    -5.53653     0.00002     0.00007
    2     0.00002    -1.12227     0.00071
    3     0.00028     0.00013    -2.89480
 ion   74
    1    -5.53961     0.00014     0.00008
    2     0.00006    -1.12339     0.00080
    3     0.00035     0.00062    -2.89392
 ion   75
    1    -5.53750    -0.00013     0.00007
    2    -0.00010    -1.12364    -0.00078
    3     0.00033    -0.00077    -2.89405
 ion   76
    1    -5.53408    -0.00010    -0.00322
    2    -0.00454    -1.12214     0.00099
    3    -0.00265     0.00000    -2.89048
 ion   77
    1    -5.54044     0.00014     0.00565
    2    -0.00569    -1.12334     0.00103
    3     0.00079     0.00064    -2.90000
 ion   78
    1    -5.53768    -0.00002     0.00054
    2     0.00194    -1.12365    -0.00204
    3    -0.00003    -0.00144    -2.89403
 ion   79
    1    -5.53319     0.00014     0.00315
    2     0.00454    -1.12226     0.00099
    3     0.00242    -0.00001    -2.89109
 ion   80
    1    -5.53932    -0.00026    -0.00579
    2     0.00564    -1.12338     0.00100
    3    -0.00111     0.00060    -2.90010
 ion   81
    1    -5.53664     0.00018    -0.00065
    2    -0.00188    -1.12368    -0.00202
    3    -0.00027    -0.00139    -2.89411
 ion   82
    1    -1.12023     0.00162     0.00002
    2    -0.00109    -5.54555     0.00266
    3    -0.00059     0.00018    -2.89146
 ion   83
    1    -1.12410     0.00036     0.00025
    2    -0.00118    -5.52848     0.00479
    3     0.00044     0.00129    -2.89657
 ion   84
    1    -1.12224    -0.00266     0.00007
    2    -0.00032    -5.53744    -0.00202
    3    -0.00005    -0.00086    -2.89415
 ion   85
    1    -1.12145    -0.00161     0.00005
    2     0.00104    -5.54581     0.00269
    3     0.00062     0.00021    -2.89201
 ion   86
    1    -1.12524    -0.00042    -0.00024
    2     0.00102    -5.52863     0.00477
    3    -0.00044     0.00125    -2.89662
 ion   87
    1    -1.12339     0.00271    -0.00008
    2     0.00043    -5.53760    -0.00205
    3     0.00005    -0.00084    -2.89424
 ion   88
    1    -1.13177     0.00001    -0.00001
    2     0.00004    -5.54368    -0.01946
    3    -0.00002    -0.01743    -2.89058
 ion   89
    1    -1.11314     0.00007    -0.00000
    2     0.00015    -5.52440    -0.02047
    3     0.00000    -0.01274    -2.89596
 ion   90
    1    -1.12347    -0.00007    -0.00000
    2    -0.00014    -5.53826    -0.00146
    3    -0.00000    -0.01295    -2.89377
 ion   91
    1    -1.12256     0.00185     0.00115
    2     0.00101    -5.53547    -0.00578
    3     0.00018     0.00227    -2.89482
 ion   92
    1    -1.12235    -0.00118     0.00029
    2     0.00008    -5.53385     0.00470
    3     0.00004    -0.00160    -2.89481
 ion   93
    1    -1.12234    -0.00060    -0.00015
    2     0.00011    -5.54043     0.00438
    3     0.00004    -0.00101    -2.89318
 ion   94
    1    -1.12369    -0.00181    -0.00111
    2    -0.00083    -5.53561    -0.00582
    3    -0.00018     0.00222    -2.89488
 ion   95
    1    -1.12358     0.00115    -0.00025
    2    -0.00007    -5.53419     0.00462
    3    -0.00006    -0.00162    -2.89542
 ion   96
    1    -1.12350     0.00054     0.00020
    2    -0.00020    -5.54059     0.00444
    3    -0.00003    -0.00092    -2.89328
 ion   97
    1    -1.12086    -0.00006     0.00002
    2    -0.00017    -5.53009    -0.05276
    3     0.00001    -0.01509    -2.89765
 ion   98
    1    -1.12436    -0.00001     0.00005
    2     0.00001    -5.53107     0.01311
    3     0.00003    -0.00079    -2.89279
 ion   99
    1    -1.12241     0.00006     0.00003
    2     0.00012    -5.54348     0.01103
    3     0.00001    -0.00319    -2.89496
 ion  100
    1    -5.54342    -0.00009    -0.00011
    2    -0.00008    -1.12269    -0.00714
    3    -0.00032    -0.00015    -2.89477
 ion  101
    1    -5.54081     0.00000     0.00000
    2     0.00005    -1.12253     0.00239
    3    -0.00028     0.00001    -2.89145
 ion  102
    1    -5.53433     0.00007    -0.00007
    2     0.00009    -1.12371     0.00214
    3    -0.00027    -0.00004    -2.89577
 ion  103
    1    -5.53102    -0.00071    -0.00902
    2    -0.01317    -1.12059    -0.01197
    3    -0.00764    -0.00054    -2.89335
 ion  104
    1    -5.54251     0.00008    -0.00483
    2     0.00665    -1.12224     0.00788
    3     0.00014     0.00012    -2.89155
 ion  105
    1    -5.53248    -0.00007     0.00310
    2     0.00521    -1.12366     0.00609
    3    -0.00057    -0.00010    -2.89497
 ion  106
    1    -5.52989     0.00074     0.00917
    2     0.01323    -1.12060    -0.01193
    3     0.00797    -0.00053    -2.89345
 ion  107
    1    -5.54162    -0.00009     0.00488
    2    -0.00665    -1.12240     0.00790
    3     0.00014     0.00010    -2.89216
 ion  108
    1    -5.53143     0.00001    -0.00303
    2    -0.00524    -1.12366     0.00601
    3     0.00087    -0.00010    -2.89505


--------------------------------------------------------------------------------------------------------


     LOOP+:  cpu time   2034.0031: real time   2079.2743
    4ORBIT:  cpu time      0.0000: real time      0.0000

 total amount of memory used by VASP MPI-rank0   266725. kBytes
=======================================================================

   base      :      30000. kBytes
   nonlr-proj:      19556. kBytes
   fftplans  :      10927. kBytes
   grid      :      23181. kBytes
   one-center:       1679. kBytes
   wavefun   :     181382. kBytes



 General timing and accounting informations for this job:
 ========================================================

                  Total CPU time used (sec):     2042.955
                            User time (sec):     1982.164
                          System time (sec):       60.791
                         Elapsed time (sec):     2099.140

                   Maximum memory used (kb):     1086968.
                   Average memory used (kb):          N/A

                          Minor page faults:       899921
                          Major page faults:           12
                 Voluntary context switches:       103174
