 vasp.6.3.0 20Jan22 (build Mar 29 2022 16:24:06) complex

 executed on             Bridges2 date 2023.01.12  19:12:39
 running on   32 total cores
 distrk:  each k-point on    4 cores,    8 groups
 distr:  one band on NCORE=   1 cores,    4 groups


--------------------------------------------------------------------------------------------------------


 INCAR:
   ICHARG = 2
   LWAVE = .FALSE.
   LCHARG = .FALSE.
   LVTOT = .FALSE.
   NCORE = 1
   KPAR = 8
   EDIFF = 1E-7
   NELM = 80
   PREC = Normal
   LREAL = Auto
   NELMIN = 4
   ENCUT = 400.0 eV
   ISPIN = 1
   ISMEAR = 0
   SIGMA = 0.10
   NSW = 0
   LEPSILON = .TRUE.
   LPEAD = .TRUE.
   ISYM = 0

 POTCAR:    PAW_PBE Ti_pv 07Sep2000
 POTCAR:    PAW_PBE O 08Apr2002
 -----------------------------------------------------------------------------
|                                                                             |
|           W    W    AA    RRRRR   N    N  II  N    N   GGGG   !!!           |
|           W    W   A  A   R    R  NN   N  II  NN   N  G    G  !!!           |
|           W    W  A    A  R    R  N N  N  II  N N  N  G       !!!           |
|           W WW W  AAAAAA  RRRRR   N  N N  II  N  N N  G  GGG   !            |
|           WW  WW  A    A  R   R   N   NN  II  N   NN  G    G                |
|           W    W  A    A  R    R  N    N  II  N    N   GGGG   !!!           |
|                                                                             |
|     For optimal performance we recommend to set                             |
|       NCORE = 2 up to number-of-cores-per-socket                            |
|     NCORE specifies how many cores store one orbital (NPAR=cpu/NCORE).      |
|     This setting can greatly improve the performance of VASP for DFT.       |
|     The default, NCORE=1 might be grossly inefficient on modern             |
|     multi-core architectures or massively parallel machines. Do your        |
|     own testing! More info at https://www.vasp.at/wiki/index.php/NCORE      |
|     Unfortunately you need to use the default for GW and RPA                |
|     calculations (for HF NCORE is supported but not extensively tested      |
|     yet).                                                                   |
|                                                                             |
 -----------------------------------------------------------------------------

 POTCAR:    PAW_PBE Ti_pv 07Sep2000
   VRHFIN =Ti: d3 s1
   LEXCH  = PE
   EATOM  =  1042.5995 eV,   76.6289 Ry

   TITEL  = PAW_PBE Ti_pv 07Sep2000
   LULTRA =        F    use ultrasoft PP ?
   IUNSCR =        1    unscreen: 0-lin 1-nonlin 2-no
   RPACOR =    2.200    partial core radius
   POMASS =   47.880; ZVAL   =   10.000    mass and valenz
   RCORE  =    2.500    outmost cutoff radius
   RWIGS  =    2.500; RWIGS  =    1.323    wigner-seitz radius (au A)
   ENMAX  =  222.335; ENMIN  =  166.751 eV
   RCLOC  =    1.701    cutoff for local pot
   LCOR   =        T    correct aug charges
   LPAW   =        T    paw PP
   EAUG   =  482.848
   DEXC   =    0.000
   RMAX   =    2.564    core radius for proj-oper
   RAUG   =    1.300    factor for augmentation sphere
   RDEP   =    2.538    radius for radial grids
   RDEPT  =    1.952    core radius for aug-charge

   Atomic configuration
    8 entries
     n  l   j            E        occ.
     1  0  0.50     -4865.3608   2.0000
     2  0  0.50      -533.1368   2.0000
     2  1  1.50      -440.5031   6.0000
     3  0  0.50       -59.3186   2.0000
     3  1  1.50       -35.7012   6.0000
     3  2  2.50        -1.9157   3.0000
     4  0  0.50        -3.7291   1.0000
     4  3  2.50        -1.3606   0.0000
   Description
     l       E           TYP  RCUT    TYP  RCUT
     1    -35.7012140     23  2.300
     1     -1.3605826     23  2.300
     2     -1.9156996     23  2.500
     2     -0.4063033     23  2.500
     0     -3.7290856     23  2.500
     0     20.4087390     23  2.500
  local pseudopotential read in
  partial core-charges read in
  partial kinetic energy density read in
  atomic valenz-charges read in
  non local Contribution for L=           1  read in
    real space projection operators read in
  non local Contribution for L=           1  read in
    real space projection operators read in
  non local Contribution for L=           2  read in
    real space projection operators read in
  non local Contribution for L=           2  read in
    real space projection operators read in
  non local Contribution for L=           0  read in
    real space projection operators read in
  non local Contribution for L=           0  read in
    real space projection operators read in
    PAW grid and wavefunctions read in

   number of l-projection  operators is LMAX  =           6
   number of lm-projection operators is LMMAX =          18

 POTCAR:    PAW_PBE O 08Apr2002
   VRHFIN =O: s2p4
   LEXCH  = PE
   EATOM  =   432.3788 eV,   31.7789 Ry

   TITEL  = PAW_PBE O 08Apr2002
   LULTRA =        F    use ultrasoft PP ?
   IUNSCR =        1    unscreen: 0-lin 1-nonlin 2-no
   RPACOR =    1.200    partial core radius
   POMASS =   16.000; ZVAL   =    6.000    mass and valenz
   RCORE  =    1.520    outmost cutoff radius
   RWIGS  =    1.550; RWIGS  =    0.820    wigner-seitz radius (au A)
   ENMAX  =  400.000; ENMIN  =  300.000 eV
   ICORE  =        2    local potential
   LCOR   =        T    correct aug charges
   LPAW   =        T    paw PP
   EAUG   =  605.392
   DEXC   =    0.000
   RMAX   =    1.553    core radius for proj-oper
   RAUG   =    1.300    factor for augmentation sphere
   RDEP   =    1.550    radius for radial grids
   RDEPT  =    1.329    core radius for aug-charge

   Atomic configuration
    4 entries
     n  l   j            E        occ.
     1  0  0.50      -514.6923   2.0000
     2  0  0.50       -23.9615   2.0000
     2  1  0.50        -9.0305   4.0000
     3  2  1.50        -9.5241   0.0000
   Description
     l       E           TYP  RCUT    TYP  RCUT
     0    -23.9615318     23  1.200
     0     -9.5240782     23  1.200
     1     -9.0304911     23  1.520
     1      8.1634956     23  1.520
     2     -9.5240782      7  1.500
  local pseudopotential read in
  partial core-charges read in
  partial kinetic energy density read in
  kinetic energy density of atom read in
  atomic valenz-charges read in
  non local Contribution for L=           0  read in
    real space projection operators read in
  non local Contribution for L=           0  read in
    real space projection operators read in
  non local Contribution for L=           1  read in
    real space projection operators read in
  non local Contribution for L=           1  read in
    real space projection operators read in
    PAW grid and wavefunctions read in

   number of l-projection  operators is LMAX  =           4
   number of lm-projection operators is LMMAX =           8

 Optimization of the real space projectors (new method)

 maximal supplied QI-value         = 15.12
 optimisation between [QCUT,QGAM] = [ 10.13, 20.41] = [ 28.73,116.64] Ry
 Optimized for a Real-space Cutoff    1.51 Angstroem

   l    n(q)    QCUT    max X(q) W(low)/X(q) W(high)/X(q)  e(spline)
   1      9    10.129     4.216    0.12E-04    0.72E-04    0.60E-07
   1      9    10.129     5.422    0.84E-04    0.21E-03    0.15E-06
   2      8    10.129    72.084    0.33E-03    0.35E-04    0.17E-06
   2      8    10.129    65.965    0.33E-03    0.37E-04    0.17E-06
   0      9    10.129    41.531    0.17E-03    0.19E-03    0.81E-07
   0      9    10.129    16.290    0.12E-03    0.14E-03    0.64E-07
 Optimization of the real space projectors (new method)

 maximal supplied QI-value         = 24.76
 optimisation between [QCUT,QGAM] = [ 10.15, 20.30] = [ 28.85,115.39] Ry
 Optimized for a Real-space Cutoff    1.38 Angstroem

   l    n(q)    QCUT    max X(q) W(low)/X(q) W(high)/X(q)  e(spline)
   0      8    10.150    20.381    0.22E-03    0.32E-03    0.29E-06
   0      8    10.150    15.268    0.23E-03    0.35E-03    0.30E-06
   1      8    10.150     5.964    0.46E-03    0.53E-03    0.21E-06
   1      8    10.150     5.382    0.38E-03    0.45E-03    0.19E-06
  PAW_PBE Ti_pv 07Sep2000               :
 energy of atom  1       EATOM=-1042.5995
 kinetic energy error for atom=    0.0037 (will be added to EATOM!!)
  PAW_PBE O 08Apr2002                   :
 energy of atom  2       EATOM= -432.3788
 kinetic energy error for atom=    0.1156 (will be added to EATOM!!)


 POSCAR: Ti4 O8
  positions in cartesian coordinates
  No initial velocities read in
 exchange correlation table for  LEXCH =        8
   RHO(1)=    0.500       N(1)  =     2000
   RHO(2)=  100.500       N(2)  =     4000



--------------------------------------------------------------------------------------------------------


 ion  position               nearest neighbor table
   1  0.167  0.167  0.500-  56 1.94  55 1.94  40 1.94  37 1.94 100 2.00  46 2.00  31 3.06  28 3.06
                            11 3.06  10 3.06
   2  0.167  0.500  0.500-  56 1.94  41 1.94  38 1.94  57 1.94 101 2.00  47 2.00  11 3.06  32 3.06
                            29 3.06  12 3.06
   3  0.167  0.833  0.500-  57 1.94  42 1.94  39 1.94  55 1.94 102 2.00  48 2.00  12 3.06  33 3.06
                            30 3.06  10 3.06
   4  0.500  0.167  0.500-  40 1.94  59 1.94  58 1.94  43 1.94 103 2.00  49 2.00  31 3.06  14 3.06
                            13 3.06  34 3.06
   5  0.500  0.500  0.500-  59 1.94  41 1.94  60 1.94  44 1.94 104 2.00  50 2.00  32 3.06  14 3.06
                            35 3.06  15 3.06
   6  0.500  0.833  0.500-  60 1.94  42 1.94  58 1.94  45 1.94 105 2.00  51 2.00  15 3.06  33 3.06
                            13 3.06  36 3.06
   7  0.833  0.167  0.500-  62 1.94  61 1.94  37 1.94  43 1.94 106 2.00  52 2.00  34 3.06  17 3.06
                            16 3.06  28 3.06
   8  0.833  0.500  0.500-  44 1.94  62 1.94  63 1.94  38 1.94 107 2.00  53 2.00  35 3.06  17 3.06
                            29 3.06  18 3.06
   9  0.833  0.833  0.500-  63 1.94  45 1.94  61 1.94  39 1.94 108 2.00  54 2.00  36 3.06  18 3.06
                            30 3.06  16 3.06
  10  0.167  0.000  0.750-  67 1.94  64 1.94  46 1.94  48 1.94  73 2.00  55 2.00  22 3.06  19 3.06
                             1 3.06   3 3.06
  11  0.167  0.333  0.750-  47 1.94  46 1.94  68 1.94  65 1.94  74 2.00  56 2.00   2 3.06  23 3.06
                            20 3.06   1 3.06
  12  0.167  0.667  0.750-  48 1.94  69 1.94  66 1.94  47 1.94  75 2.00  57 2.00   3 3.06  24 3.06
                            21 3.06   2 3.06
  13  0.500  0.000  0.750-  67 1.94  49 1.94  51 1.94  70 1.94  76 2.00  58 2.00  22 3.06   4 3.06
                            25 3.06   6 3.06
  14  0.500  0.333  0.750-  50 1.94  68 1.94  49 1.94  71 1.94  77 2.00  59 2.00  23 3.06   5 3.06
                             4 3.06  26 3.06
  15  0.500  0.667  0.750-  51 1.94  69 1.94  50 1.94  72 1.94  78 2.00  60 2.00   6 3.06  24 3.06
                            27 3.06   5 3.06
  16  0.833  0.000  0.750-  70 1.94  52 1.94  64 1.94  54 1.94  79 2.00  61 2.00  25 3.06   7 3.06
                            19 3.06   9 3.06
  17  0.833  0.333  0.750-  71 1.94  53 1.94  52 1.94  65 1.94  80 2.00  62 2.00  26 3.06   8 3.06
                             7 3.06  20 3.06
  18  0.833  0.667  0.750-  54 1.94  72 1.94  66 1.94  53 1.94  81 2.00  63 2.00  27 3.06   9 3.06
                            21 3.06   8 3.06
  19  0.000  0.000  0.000-  73 1.94  91 1.94  79 1.94  93 1.94  82 2.00  64 2.00  10 3.06  28 3.06
                            16 3.06  30 3.06
  20  0.000  0.333  0.000-  92 1.94  74 1.94  91 1.94  80 1.94  83 2.00  65 2.00  29 3.06  11 3.06
                            28 3.06  17 3.06
  21  0.000  0.667  0.000-  93 1.94  75 1.94  81 1.94  92 1.94  84 2.00  66 2.00  30 3.06  12 3.06
                            18 3.06  29 3.06
  22  0.333  0.000  0.000-  76 1.94  73 1.94  94 1.94  96 1.94  85 2.00  67 2.00  13 3.06  10 3.06
                            31 3.06  33 3.06
  23  0.333  0.333  0.000-  77 1.94  95 1.94  74 1.94  94 1.94  86 2.00  68 2.00  14 3.06  32 3.06
                            11 3.06  31 3.06
  24  0.333  0.667  0.000-  96 1.94  78 1.94  75 1.94  95 1.94  87 2.00  69 2.00  33 3.06  15 3.06
                            12 3.06  32 3.06
  25  0.667  0.000  0.000-  79 1.94  97 1.94  76 1.94  99 1.94  88 2.00  70 2.00  16 3.06  34 3.06
                            13 3.06  36 3.06
  26  0.667  0.333  0.000-  80 1.94  98 1.94  97 1.94  77 1.94  89 2.00  71 2.00  17 3.06  35 3.06
                            34 3.06  14 3.06
  27  0.667  0.667  0.000-  81 1.94  99 1.94  78 1.94  98 1.94  90 2.00  72 2.00  18 3.06  36 3.06
                            15 3.06  35 3.06
  28  0.000  0.167  0.250-  83 1.94  82 1.94 100 1.94 106 1.94  37 2.00  91 2.00   1 3.06  20 3.06
                            19 3.06   7 3.06
  29  0.000  0.500  0.250-  83 1.94 101 1.94  84 1.94 107 1.94  38 2.00  92 2.00  20 3.06   2 3.06
                             8 3.06  21 3.06
  30  0.000  0.833  0.250-  84 1.94 102 1.94  82 1.94 108 1.94  39 2.00  93 2.00  21 3.06   3 3.06
                             9 3.06  19 3.06
  31  0.333  0.167  0.250- 103 1.94  86 1.94  85 1.94 100 1.94  40 2.00  94 2.00   4 3.06   1 3.06
                            23 3.06  22 3.06
  32  0.333  0.500  0.250-  86 1.94 104 1.94 101 1.94  87 1.94  41 2.00  95 2.00   5 3.06  23 3.06
                             2 3.06  24 3.06
  33  0.333  0.833  0.250-  87 1.94 105 1.94 102 1.94  85 1.94  42 2.00  96 2.00  24 3.06   6 3.06
                             3 3.06  22 3.06
  34  0.667  0.167  0.250- 106 1.94  89 1.94  88 1.94 103 1.94  97 2.00  43 2.00   7 3.06  26 3.06
                            25 3.06   4 3.06
  35  0.667  0.500  0.250- 107 1.94  89 1.94  90 1.94 104 1.94  44 2.00  98 2.00   8 3.06  26 3.06
                             5 3.06  27 3.06
  36  0.667  0.833  0.250-  90 1.94 108 1.94  88 1.94 105 1.94  45 2.00  99 2.00   9 3.06  27 3.06
                            25 3.06   6 3.06
  37  0.000  0.167  0.458-   1 1.94   7 1.94  28 2.00
  38  0.000  0.500  0.458-   2 1.94   8 1.94  29 2.00
  39  0.000  0.833  0.458-   3 1.94   9 1.94  30 2.00
  40  0.333  0.167  0.458-   4 1.94   1 1.94  31 2.00
  41  0.333  0.500  0.458-   5 1.94   2 1.94  32 2.00
  42  0.333  0.833  0.458-   6 1.94   3 1.94  33 2.00
  43  0.667  0.175  0.458-   7 1.94   4 1.94  34 2.00
  44  0.667  0.500  0.458-   8 1.94   5 1.94  35 2.00
  45  0.667  0.833  0.458-   9 1.94   6 1.94  36 2.00
  46  0.167  0.167  0.708-  11 1.94  10 1.94   1 2.00
  47  0.167  0.500  0.708-  11 1.94  12 1.94   2 2.00
  48  0.167  0.833  0.708-  12 1.94  10 1.94   3 2.00
  49  0.500  0.167  0.708-  14 1.94  13 1.94   4 2.00
  50  0.500  0.500  0.708-  14 1.94  15 1.94   5 2.00
  51  0.500  0.833  0.708-  15 1.94  13 1.94   6 2.00
  52  0.833  0.167  0.708-  17 1.94  16 1.94   7 2.00
  53  0.833  0.500  0.708-  17 1.94  18 1.94   8 2.00
  54  0.833  0.833  0.708-  18 1.94  16 1.94   9 2.00
  55  0.167  0.000  0.542-   1 1.94   3 1.94  10 2.00
  56  0.167  0.333  0.542-   2 1.94   1 1.94  11 2.00
  57  0.167  0.667  0.542-   3 1.94   2 1.94  12 2.00
  58  0.500  0.000  0.542-   4 1.94   6 1.94  13 2.00
  59  0.500  0.333  0.542-   5 1.94   4 1.94  14 2.00
  60  0.500  0.667  0.542-   6 1.94   5 1.94  15 2.00
  61  0.833  0.000  0.542-   7 1.94   9 1.94  16 2.00
  62  0.833  0.333  0.542-   8 1.94   7 1.94  17 2.00
  63  0.833  0.667  0.542-   9 1.94   8 1.94  18 2.00
  64  0.000  0.000  0.792-  10 1.94  16 1.94  19 2.00
  65  0.000  0.333  0.792-  11 1.94  17 1.94  20 2.00
  66  0.000  0.667  0.792-  12 1.94  18 1.94  21 2.00
  67  0.333  0.000  0.792-  13 1.94  10 1.94  22 2.00
  68  0.333  0.333  0.792-  14 1.94  11 1.94  23 2.00
  69  0.333  0.667  0.792-  15 1.94  12 1.94  24 2.00
  70  0.667  0.000  0.792-  16 1.94  13 1.94  25 2.00
  71  0.667  0.333  0.792-  17 1.94  14 1.94  26 2.00
  72  0.667  0.667  0.792-  18 1.94  15 1.94  27 2.00
  73  0.167  0.000  0.958-  22 1.94  19 1.94  10 2.00
  74  0.167  0.333  0.958-  23 1.94  20 1.94  11 2.00
  75  0.167  0.667  0.958-  24 1.94  21 1.94  12 2.00
  76  0.500  0.000  0.958-  22 1.94  25 1.94  13 2.00
  77  0.500  0.333  0.958-  23 1.94  26 1.94  14 2.00
  78  0.500  0.667  0.958-  24 1.94  27 1.94  15 2.00
  79  0.833  0.000  0.958-  25 1.94  19 1.94  16 2.00
  80  0.833  0.333  0.958-  26 1.94  20 1.94  17 2.00
  81  0.833  0.667  0.958-  27 1.94  21 1.94  18 2.00
  82  0.000  0.000  0.208-  28 1.94  30 1.94  19 2.00
  83  0.000  0.333  0.208-  29 1.94  28 1.94  20 2.00
  84  0.000  0.667  0.208-  30 1.94  29 1.94  21 2.00
  85  0.333  0.000  0.208-  31 1.94  33 1.94  22 2.00
  86  0.333  0.333  0.208-  32 1.94  31 1.94  23 2.00
  87  0.333  0.667  0.208-  33 1.94  32 1.94  24 2.00
  88  0.667  0.000  0.208-  34 1.94  36 1.94  25 2.00
  89  0.667  0.333  0.208-  35 1.94  34 1.94  26 2.00
  90  0.667  0.667  0.208-  36 1.94  35 1.94  27 2.00
  91  0.000  0.167  0.042-  20 1.94  19 1.94  28 2.00
  92  0.000  0.500  0.042-  20 1.94  21 1.94  29 2.00
  93  0.000  0.833  0.042-  21 1.94  19 1.94  30 2.00
  94  0.333  0.167  0.042-  23 1.94  22 1.94  31 2.00
  95  0.333  0.500  0.042-  23 1.94  24 1.94  32 2.00
  96  0.333  0.833  0.042-  24 1.94  22 1.94  33 2.00
  97  0.667  0.167  0.042-  26 1.94  25 1.94  34 2.00
  98  0.667  0.500  0.042-  26 1.94  27 1.94  35 2.00
  99  0.667  0.833  0.042-  27 1.94  25 1.94  36 2.00
 100  0.167  0.167  0.292-  31 1.94  28 1.94   1 2.00
 101  0.167  0.500  0.292-  32 1.94  29 1.94   2 2.00
 102  0.167  0.833  0.292-  33 1.94  30 1.94   3 2.00
 103  0.500  0.167  0.292-  31 1.94  34 1.94   4 2.00
 104  0.500  0.500  0.292-  32 1.94  35 1.94   5 2.00
 105  0.500  0.833  0.292-  33 1.94  36 1.94   6 2.00
 106  0.833  0.167  0.292-  34 1.94  28 1.94   7 2.00
 107  0.833  0.500  0.292-  35 1.94  29 1.94   8 2.00
 108  0.833  0.833  0.292-  36 1.94  30 1.94   9 2.00


IMPORTANT INFORMATION: All symmetrisations will be switched off!
NOSYMM: (Re-)initialisation of all symmetry stuff for point group C_1.


----------------------------------------------------------------------------------------

                                     Primitive cell

  volume of cell :    1243.1447

  direct lattice vectors                    reciprocal lattice vectors
    11.376843452  0.000000000  0.000000000     0.087897843  0.000000000  0.000000000
     0.000000000 11.376843452  0.000000000     0.000000000  0.087897843  0.000000000
     0.000000000  0.000000000  9.604574204     0.000000000  0.000000000  0.104117057

  length of vectors
    11.376843452 11.376843452  9.604574204     0.087897843  0.087897843  0.104117057

  position of ions in fractional coordinates (direct lattice)
     0.166666672  0.166666672  0.500000000
     0.166666672  0.500000000  0.500000000
     0.166666672  0.833333313  0.500000000
     0.500000000  0.166666672  0.500000000
     0.500000000  0.500000000  0.500000000
     0.500000000  0.833333313  0.500000000
     0.833333313  0.166666672  0.500000000
     0.833333313  0.500000000  0.500000000
     0.833333313  0.833333313  0.500000000
     0.166666672  0.000000000  0.750000000
     0.166666672  0.333333343  0.750000000
     0.166666672  0.666666687  0.750000000
     0.500000000  0.000000000  0.750000000
     0.500000000  0.333333343  0.750000000
     0.500000000  0.666666687  0.750000000
     0.833333313  0.000000000  0.750000000
     0.833333313  0.333333343  0.750000000
     0.833333313  0.666666687  0.750000000
     0.000000000  0.000000000  0.000000000
     0.000000000  0.333333343  0.000000000
     0.000000000  0.666666687  0.000000000
     0.333333343  0.000000000  0.000000000
     0.333333343  0.333333343  0.000000000
     0.333333343  0.666666687  0.000000000
     0.666666687  0.000000000  0.000000000
     0.666666687  0.333333343  0.000000000
     0.666666687  0.666666687  0.000000000
     0.000000000  0.166666672  0.250000000
     0.000000000  0.500000000  0.250000000
     0.000000000  0.833333313  0.250000000
     0.333333343  0.166666672  0.250000000
     0.333333343  0.500000000  0.250000000
     0.333333343  0.833333313  0.250000000
     0.666666687  0.166666672  0.250000000
     0.666666687  0.500000000  0.250000000
     0.666666687  0.833333313  0.250000000
     0.000000000  0.166666672  0.457898587
     0.000000000  0.500000000  0.457898587
     0.000000000  0.833333313  0.457898587
     0.333333343  0.166666672  0.457898587
     0.333333343  0.500000000  0.457898587
     0.333333343  0.833333313  0.457898587
     0.666666687  0.175456456  0.457898587
     0.666666687  0.500000000  0.457898587
     0.666666687  0.833333313  0.457898587
     0.166666672  0.166666672  0.707898617
     0.166666672  0.500000000  0.707898617
     0.166666672  0.833333313  0.707898617
     0.500000000  0.166666672  0.707898617
     0.500000000  0.500000000  0.707898617
     0.500000000  0.833333313  0.707898617
     0.833333313  0.166666672  0.707898617
     0.833333313  0.500000000  0.707898617
     0.833333313  0.833333313  0.707898617
     0.166666672  0.000000000  0.542101383
     0.166666672  0.333333343  0.542101383
     0.166666672  0.666666687  0.542101383
     0.500000000  0.000000000  0.542101383
     0.500000000  0.333333343  0.542101383
     0.500000000  0.666666687  0.542101383
     0.833333313  0.000000000  0.542101383
     0.833333313  0.333333343  0.542101383
     0.833333313  0.666666687  0.542101383
     0.000000000  0.000000000  0.792101383
     0.000000000  0.333333343  0.792101383
     0.000000000  0.666666687  0.792101383
     0.333333343  0.000000000  0.792101383
     0.333333343  0.333333343  0.792101383
     0.333333343  0.666666687  0.792101383
     0.666666687  0.000000000  0.792101383
     0.666666687  0.333333343  0.792101383
     0.666666687  0.666666687  0.792101383
     0.166666672  0.000000000  0.957898617
     0.166666672  0.333333343  0.957898617
     0.166666672  0.666666687  0.957898617
     0.500000000  0.000000000  0.957898617
     0.500000000  0.333333343  0.957898617
     0.500000000  0.666666687  0.957898617
     0.833333313  0.000000000  0.957898617
     0.833333313  0.333333343  0.957898617
     0.833333313  0.666666687  0.957898617
     0.000000000  0.000000000  0.207898602
     0.000000000  0.333333343  0.207898602
     0.000000000  0.666666687  0.207898602
     0.333333343  0.000000000  0.207898602
     0.333333343  0.333333343  0.207898602
     0.333333343  0.666666687  0.207898602
     0.666666687  0.000000000  0.207898602
     0.666666687  0.333333343  0.207898602
     0.666666687  0.666666687  0.207898602
     0.000000000  0.166666672  0.042101406
     0.000000000  0.500000000  0.042101406
     0.000000000  0.833333313  0.042101406
     0.333333343  0.166666672  0.042101406
     0.333333343  0.500000000  0.042101406
     0.333333343  0.833333313  0.042101406
     0.666666687  0.166666672  0.042101406
     0.666666687  0.500000000  0.042101406
     0.666666687  0.833333313  0.042101406
     0.166666672  0.166666672  0.292101413
     0.166666672  0.500000000  0.292101413
     0.166666672  0.833333313  0.292101413
     0.500000000  0.166666672  0.292101413
     0.500000000  0.500000000  0.292101413
     0.500000000  0.833333313  0.292101413
     0.833333313  0.166666672  0.292101413
     0.833333313  0.500000000  0.292101413
     0.833333313  0.833333313  0.292101413

  ion indices of the primitive-cell ions
   primitive index   ion index
                 1           1
                 2           2
                 3           3
                 4           4
                 5           5
                 6           6
                 7           7
                 8           8
                 9           9
                10          10
                11          11
                12          12
                13          13
                14          14
                15          15
                16          16
                17          17
                18          18
                19          19
                20          20
                21          21
                22          22
                23          23
                24          24
                25          25
                26          26
                27          27
                28          28
                29          29
                30          30
                31          31
                32          32
                33          33
                34          34
                35          35
                36          36
                37          37
                38          38
                39          39
                40          40
                41          41
                42          42
                43          43
                44          44
                45          45
                46          46
                47          47
                48          48
                49          49
                50          50
                51          51
                52          52
                53          53
                54          54
                55          55
                56          56
                57          57
                58          58
                59          59
                60          60
                61          61
                62          62
                63          63
                64          64
                65          65
                66          66
                67          67
                68          68
                69          69
                70          70
                71          71
                72          72
                73          73
                74          74
                75          75
                76          76
                77          77
                78          78
                79          79
                80          80
                81          81
                82          82
                83          83
                84          84
                85          85
                86          86
                87          87
                88          88
                89          89
                90          90
                91          91
                92          92
                93          93
                94          94
                95          95
                96          96
                97          97
                98          98
                99          99
               100         100
               101         101
               102         102
               103         103
               104         104
               105         105
               106         106
               107         107
               108         108

----------------------------------------------------------------------------------------



 KPOINTS: K-Points

Automatic generation of k-mesh.
 Grid dimensions read from file:
 generate k-points for:    2    2    2

 Generating k-lattice:

  Cartesian coordinates                     Fractional coordinates (reciprocal lattice)
     0.043948922  0.000000000  0.000000000     0.500000000  0.000000000  0.000000000
     0.000000000  0.043948922  0.000000000     0.000000000  0.500000000  0.000000000
     0.000000000  0.000000000  0.052058529     0.000000000  0.000000000  0.500000000

  Length of vectors
     0.043948922  0.043948922  0.052058529

  Shift w.r.t. Gamma in fractional coordinates (k-lattice)
     0.500000000  0.500000000  0.500000000


 Subroutine IBZKPT returns following result:
 ===========================================

 Found      4 irreducible k-points:

 Following reciprocal coordinates:
            Coordinates               Weight
  0.250000  0.250000  0.250000      2.000000
 -0.250000  0.250000  0.250000      2.000000
 -0.250000 -0.250000  0.250000      2.000000
  0.250000 -0.250000  0.250000      2.000000

 Following cartesian coordinates:
            Coordinates               Weight
  0.021974  0.021974  0.026029      2.000000
 -0.021974  0.021974  0.026029      2.000000
 -0.021974 -0.021974  0.026029      2.000000
  0.021974 -0.021974  0.026029      2.000000


 Subroutine IBZKPT_HF returns following result:
 ==============================================

 Found      8 k-points in 1st BZ
 the following      8 k-points will be used (e.g. in the exchange kernel)
 Following reciprocal coordinates:   # in IRBZ
  0.250000  0.250000  0.250000    0.12500000   1 t-inv F
 -0.250000  0.250000  0.250000    0.12500000   2 t-inv F
 -0.250000 -0.250000  0.250000    0.12500000   3 t-inv F
  0.250000 -0.250000  0.250000    0.12500000   4 t-inv F
 -0.250000 -0.250000 -0.250000    0.12500000   1 t-inv T
  0.250000 -0.250000 -0.250000    0.12500000   2 t-inv T
  0.250000  0.250000 -0.250000    0.12500000   3 t-inv T
 -0.250000  0.250000 -0.250000    0.12500000   4 t-inv T


--------------------------------------------------------------------------------------------------------




 Dimension of arrays:
   k-points           NKPTS =      4   k-points in BZ     NKDIM =      4   number of bands    NBANDS=    476
   number of dos      NEDOS =    301   number of ions     NIONS =    108
   non local maximal  LDIM  =      6   non local SUM 2l+1 LMDIM =     18
   total plane-waves  NPLWV = 150528
   max r-space proj   IRMAX =   1791   max aug-charges    IRDMAX=   4900
   dimension x,y,z NGX =    56 NGY =   56 NGZ =   48
   dimension x,y,z NGXF=   112 NGYF=  112 NGZF=   96
   support grid    NGXF=   112 NGYF=  112 NGZF=   96
   ions per type =              36  72
   NGX,Y,Z   is equivalent  to a cutoff of   8.18,  8.18,  8.31 a.u.
   NGXF,Y,Z  is equivalent  to a cutoff of  16.37, 16.37, 16.62 a.u.

 SYSTEM =  unknown system
 POSCAR =  Ti4 O8

 Startparameter for this run:
   NWRITE =      2    write-flag & timer
   PREC   = normal    normal or accurate (medium, high low for compatibility)
   ISTART =      0    job   : 0-new  1-cont  2-samecut
   ICHARG =      2    charge: 1-file 2-atom 10-const
   ISPIN  =      1    spin polarized calculation?
   LNONCOLLINEAR =      F non collinear calculations
   LSORBIT =      F    spin-orbit coupling
   INIWAV =      1    electr: 0-lowe 1-rand  2-diag
   LASPH  =      F    aspherical Exc in radial PAW
 Electronic Relaxation 1
   ENCUT  =  400.0 eV  29.40 Ry    5.42 a.u.  18.55 18.55 15.66*2*pi/ulx,y,z
   ENINI  =  400.0     initial cutoff
   ENAUG  =  605.4 eV  augmentation charge cutoff
   NELM   =     80;   NELMIN=  4; NELMDL= -5     # of ELM steps
   EDIFF  = 0.1E-06   stopping-criterion for ELM
   LREAL  =      T    real-space projection
   NLSPLINE    = F    spline interpolate recip. space projectors
   LCOMPAT=      F    compatible to vasp.4.4
   GGA_COMPAT  = T    GGA compatible to vasp.4.4-vasp.4.6
   LMAXPAW     = -100 max onsite density
   LMAXMIX     =    2 max onsite mixed and CHGCAR
   VOSKOWN=      0    Vosko Wilk Nusair interpolation
   ROPT   =   -0.00050  -0.00050
 Ionic relaxation
   EDIFFG = 0.1E-05   stopping-criterion for IOM
   NSW    =      0    number of steps for IOM
   NBLOCK =      1;   KBLOCK =      1    inner block; outer block
   IBRION =     -1    ionic relax: 0-MD 1-quasi-New 2-CG
   NFREE  =      0    steps in history (QN), initial steepest desc. (CG)
   ISIF   =      2    stress and relaxation
   IWAVPR =     10    prediction:  0-non 1-charg 2-wave 3-comb
   ISYM   =      0    0-nonsym 1-usesym 2-fastsym
   LCORR  =      T    Harris-Foulkes like correction to forces

   POTIM  = 0.5000    time-step for ionic-motion
   TEIN   =    0.0    initial temperature
   TEBEG  =    0.0;   TEEND  =   0.0 temperature during run
   SMASS  =  -3.00    Nose mass-parameter (am)
   estimated Nose-frequenzy (Omega)   =  0.10E-29 period in steps = 0.13E+47 mass=  -0.296E-26a.u.
   SCALEE = 1.0000    scale energy and forces
   NPACO  =    256;   APACO  = 10.0  distance and # of slots for P.C.
   PSTRESS=    0.0 pullay stress

  Mass of Ions in am
   POMASS =  47.88 16.00
  Ionic Valenz
   ZVAL   =  10.00  6.00
  Atomic Wigner-Seitz radii
   RWIGS  =  -1.00 -1.00
  virtual crystal weights
   VCA    =   1.00  1.00
   NELECT =     792.0000    total number of electrons
   NUPDOWN=      -1.0000    fix difference up-down

 DOS related values:
   EMIN   =  10.00;   EMAX   =-10.00  energy-range for DOS
   EFERMI =   0.00
   ISMEAR =     0;   SIGMA  =   0.10  broadening in eV -4-tet -1-fermi 0-gaus

 Electronic relaxation 2 (details)
   IALGO  =     38    algorithm
   LDIAG  =      T    sub-space diagonalisation (order eigenvalues)
   LSUBROT=      F    optimize rotation matrix (better conditioning)
   TURBO    =      0    0=normal 1=particle mesh
   IRESTART =      0    0=no restart 2=restart with 2 vectors
   NREBOOT  =      0    no. of reboots
   NMIN     =      0    reboot dimension
   EREF     =   0.00    reference energy to select bands
   IMIX   =      4    mixing-type and parameters
     AMIX     =   0.40;   BMIX     =  1.00
     AMIX_MAG =   1.60;   BMIX_MAG =  1.00
     AMIN     =   0.10
     WC   =   100.;   INIMIX=   1;  MIXPRE=   1;  MAXMIX= -45

 Intra band minimization:
   WEIMIN = 0.0000     energy-eigenvalue tresh-hold
   EBREAK =  0.53E-10  absolut break condition
   DEPER  =   0.30     relativ break condition

   TIME   =   0.40     timestep for ELM

  volume/ion in A,a.u.               =      11.51        77.68
  Fermi-wavevector in a.u.,A,eV,Ry     =   1.408670  2.662001 26.998745  1.984352
  Thomas-Fermi vector in A             =   2.530804

 Write flags
   LWAVE        =      F    write WAVECAR
   LDOWNSAMPLE  =      F    k-point downsampling of WAVECAR
   LCHARG       =      F    write CHGCAR
   LVTOT        =      F    write LOCPOT, total local potential
   LVHAR        =      F    write LOCPOT, Hartree potential only
   LELF         =      F    write electronic localiz. function (ELF)
   LORBIT       =      0    0 simple, 1 ext, 2 COOP (PROOUT), +10 PAW based schemes


 Dipole corrections
   LMONO  =      F    monopole corrections only (constant potential shift)
   LDIPOL =      F    correct potential (dipole corrections)
   IDIPOL =      0    1-x, 2-y, 3-z, 4-all directions
   EPSILON=  1.0000000 bulk dielectric constant

 Exchange correlation treatment:
   GGA     =    --    GGA type
   LEXCH   =     8    internal setting for exchange type
   LIBXC   =     F    Libxc
   VOSKOWN =     0    Vosko Wilk Nusair interpolation
   LHFCALC =     F    Hartree Fock is set to
   LHFONE  =     F    Hartree Fock one center treatment
   AEXX    =    0.0000 exact exchange contribution

 Linear response parameters
   LEPSILON=     T    determine dielectric tensor
   LRPA    =     F    only Hartree local field effects (RPA)
   LNABLA  =     F    use nabla operator in PAW spheres
   LVEL    =     F    velocity operator in full k-point grid
   CSHIFT  =0.1000    complex shift for real part using Kramers Kronig
   OMEGAMAX=  -1.0    maximum frequency
   DEG_THRESHOLD= 0.2000000E-02 threshold for treating states as degnerate
   RTIME   =   -0.100 relaxation time in fs
  (WPLASMAI=    0.000 imaginary part of plasma frequency in eV, 0.658/RTIME)
   DFIELD  = 0.0000000 0.0000000 0.0000000 field for delta impulse in time

  Optional k-point grid parameters
   LKPOINTS_OPT  =     F    use optional k-point grid
   KPOINTS_OPT_MODE=     1    mode for optional k-point grid

 Orbital magnetization related:
   ORBITALMAG=     F  switch on orbital magnetization
   LCHIMAG   =     F  perturbation theory with respect to B field
   DQ        =  0.001000  dq finite difference perturbation B field
   LLRAUG    =     F  two centre corrections for induced B field

 PEAD related settings:
   LPEAD      =     T    switch on PEAD
   IPEAD      =     4    finite difference order for dpsi/dk
   LCALCPOL   =     F    calculate macroscopic polarization
   LCALCEPS   =     F    calculate dielectric tensor
   EFIELD_PEAD=    0.0000    0.0000    0.0000
   SKIP_EDOTP =     F
   LRPA       =     F
   SKIP_SCF   =     F


--------------------------------------------------------------------------------------------------------


 Static calculation
 charge density and potential will be updated during run
 non-spin polarized calculation
 Variant of blocked Davidson
 Davidson routine will perform the subspace rotation
 perform sub-space diagonalisation
    after iterative eigenvector-optimisation
 modified Broyden-mixing scheme, WC =      100.0
 initial mixing is a Kerker type mixing with AMIX =  0.4000 and BMIX =      1.0000
 Hartree-type preconditioning will be used
 using additional bands           80
 real space projection scheme for non local part
 use partial core corrections
 calculate Harris-corrections to forces
   (improved forces if not selfconsistent)
 use gradient corrections
 use of overlap-Matrix (Vanderbilt PP)
 Gauss-broadening in eV      SIGMA  =   0.10


--------------------------------------------------------------------------------------------------------


  energy-cutoff  :      400.00
  volume of cell :     1243.14
      direct lattice vectors                 reciprocal lattice vectors
    11.376843452  0.000000000  0.000000000     0.087897843  0.000000000  0.000000000
     0.000000000 11.376843452  0.000000000     0.000000000  0.087897843  0.000000000
     0.000000000  0.000000000  9.604574204     0.000000000  0.000000000  0.104117057

  length of vectors
    11.376843452 11.376843452  9.604574204     0.087897843  0.087897843  0.104117057



 k-points in units of 2pi/SCALE and weight: K-Points
   0.02197446  0.02197446  0.02602926       0.250
  -0.02197446  0.02197446  0.02602926       0.250
  -0.02197446 -0.02197446  0.02602926       0.250
   0.02197446 -0.02197446  0.02602926       0.250

 k-points in reciprocal lattice and weights: K-Points
   0.25000000  0.25000000  0.25000000       0.250
  -0.25000000  0.25000000  0.25000000       0.250
  -0.25000000 -0.25000000  0.25000000       0.250
   0.25000000 -0.25000000  0.25000000       0.250

 position of ions in fractional coordinates (direct lattice)
   0.16666667  0.16666667  0.50000000
   0.16666667  0.50000000  0.50000000
   0.16666667  0.83333331  0.50000000
   0.50000000  0.16666667  0.50000000
   0.50000000  0.50000000  0.50000000
   0.50000000  0.83333331  0.50000000
   0.83333331  0.16666667  0.50000000
   0.83333331  0.50000000  0.50000000
   0.83333331  0.83333331  0.50000000
   0.16666667  0.00000000  0.75000000
   0.16666667  0.33333334  0.75000000
   0.16666667  0.66666669  0.75000000
   0.50000000  0.00000000  0.75000000
   0.50000000  0.33333334  0.75000000
   0.50000000  0.66666669  0.75000000
   0.83333331  0.00000000  0.75000000
   0.83333331  0.33333334  0.75000000
   0.83333331  0.66666669  0.75000000
   0.00000000  0.00000000  0.00000000
   0.00000000  0.33333334  0.00000000
   0.00000000  0.66666669  0.00000000
   0.33333334  0.00000000  0.00000000
   0.33333334  0.33333334  0.00000000
   0.33333334  0.66666669  0.00000000
   0.66666669  0.00000000  0.00000000
   0.66666669  0.33333334  0.00000000
   0.66666669  0.66666669  0.00000000
   0.00000000  0.16666667  0.25000000
   0.00000000  0.50000000  0.25000000
   0.00000000  0.83333331  0.25000000
   0.33333334  0.16666667  0.25000000
   0.33333334  0.50000000  0.25000000
   0.33333334  0.83333331  0.25000000
   0.66666669  0.16666667  0.25000000
   0.66666669  0.50000000  0.25000000
   0.66666669  0.83333331  0.25000000
   0.00000000  0.16666667  0.45789859
   0.00000000  0.50000000  0.45789859
   0.00000000  0.83333331  0.45789859
   0.33333334  0.16666667  0.45789859
   0.33333334  0.50000000  0.45789859
   0.33333334  0.83333331  0.45789859
   0.66666669  0.17545646  0.45789859
   0.66666669  0.50000000  0.45789859
   0.66666669  0.83333331  0.45789859
   0.16666667  0.16666667  0.70789862
   0.16666667  0.50000000  0.70789862
   0.16666667  0.83333331  0.70789862
   0.50000000  0.16666667  0.70789862
   0.50000000  0.50000000  0.70789862
   0.50000000  0.83333331  0.70789862
   0.83333331  0.16666667  0.70789862
   0.83333331  0.50000000  0.70789862
   0.83333331  0.83333331  0.70789862
   0.16666667  0.00000000  0.54210138
   0.16666667  0.33333334  0.54210138
   0.16666667  0.66666669  0.54210138
   0.50000000  0.00000000  0.54210138
   0.50000000  0.33333334  0.54210138
   0.50000000  0.66666669  0.54210138
   0.83333331  0.00000000  0.54210138
   0.83333331  0.33333334  0.54210138
   0.83333331  0.66666669  0.54210138
   0.00000000  0.00000000  0.79210138
   0.00000000  0.33333334  0.79210138
   0.00000000  0.66666669  0.79210138
   0.33333334  0.00000000  0.79210138
   0.33333334  0.33333334  0.79210138
   0.33333334  0.66666669  0.79210138
   0.66666669  0.00000000  0.79210138
   0.66666669  0.33333334  0.79210138
   0.66666669  0.66666669  0.79210138
   0.16666667  0.00000000  0.95789862
   0.16666667  0.33333334  0.95789862
   0.16666667  0.66666669  0.95789862
   0.50000000  0.00000000  0.95789862
   0.50000000  0.33333334  0.95789862
   0.50000000  0.66666669  0.95789862
   0.83333331  0.00000000  0.95789862
   0.83333331  0.33333334  0.95789862
   0.83333331  0.66666669  0.95789862
   0.00000000  0.00000000  0.20789860
   0.00000000  0.33333334  0.20789860
   0.00000000  0.66666669  0.20789860
   0.33333334  0.00000000  0.20789860
   0.33333334  0.33333334  0.20789860
   0.33333334  0.66666669  0.20789860
   0.66666669  0.00000000  0.20789860
   0.66666669  0.33333334  0.20789860
   0.66666669  0.66666669  0.20789860
   0.00000000  0.16666667  0.04210141
   0.00000000  0.50000000  0.04210141
   0.00000000  0.83333331  0.04210141
   0.33333334  0.16666667  0.04210141
   0.33333334  0.50000000  0.04210141
   0.33333334  0.83333331  0.04210141
   0.66666669  0.16666667  0.04210141
   0.66666669  0.50000000  0.04210141
   0.66666669  0.83333331  0.04210141
   0.16666667  0.16666667  0.29210141
   0.16666667  0.50000000  0.29210141
   0.16666667  0.83333331  0.29210141
   0.50000000  0.16666667  0.29210141
   0.50000000  0.50000000  0.29210141
   0.50000000  0.83333331  0.29210141
   0.83333331  0.16666667  0.29210141
   0.83333331  0.50000000  0.29210141
   0.83333331  0.83333331  0.29210141

 position of ions in cartesian coordinates  (Angst):
   1.89614063  1.89614063  4.80228710
   1.89614063  5.68842173  4.80228710
   1.89614063  9.48070265  4.80228710
   5.68842173  1.89614063  4.80228710
   5.68842173  5.68842173  4.80228710
   5.68842173  9.48070265  4.80228710
   9.48070265  1.89614063  4.80228710
   9.48070265  5.68842173  4.80228710
   9.48070265  9.48070265  4.80228710
   1.89614063  0.00000000  7.20343065
   1.89614063  3.79228126  7.20343065
   1.89614063  7.58456253  7.20343065
   5.68842173  0.00000000  7.20343065
   5.68842173  3.79228126  7.20343065
   5.68842173  7.58456253  7.20343065
   9.48070265  0.00000000  7.20343065
   9.48070265  3.79228126  7.20343065
   9.48070265  7.58456253  7.20343065
   0.00000000  0.00000000  0.00000000
   0.00000000  3.79228126  0.00000000
   0.00000000  7.58456253  0.00000000
   3.79228126  0.00000000  0.00000000
   3.79228126  3.79228126  0.00000000
   3.79228126  7.58456253  0.00000000
   7.58456253  0.00000000  0.00000000
   7.58456253  3.79228126  0.00000000
   7.58456253  7.58456253  0.00000000
   0.00000000  1.89614063  2.40114355
   0.00000000  5.68842173  2.40114355
   0.00000000  9.48070265  2.40114355
   3.79228126  1.89614063  2.40114355
   3.79228126  5.68842173  2.40114355
   3.79228126  9.48070265  2.40114355
   7.58456253  1.89614063  2.40114355
   7.58456253  5.68842173  2.40114355
   7.58456253  9.48070265  2.40114355
   0.00000000  1.89614063  4.39792096
   0.00000000  5.68842173  4.39792096
   0.00000000  9.48070265  4.39792096
   3.79228126  1.89614063  4.39792096
   3.79228126  5.68842173  4.39792096
   3.79228126  9.48070265  4.39792096
   7.58456253  1.99614063  4.39792096
   7.58456253  5.68842173  4.39792096
   7.58456253  9.48070265  4.39792096
   1.89614063  1.89614063  6.79906479
   1.89614063  5.68842173  6.79906479
   1.89614063  9.48070265  6.79906479
   5.68842173  1.89614063  6.79906479
   5.68842173  5.68842173  6.79906479
   5.68842173  9.48070265  6.79906479
   9.48070265  1.89614063  6.79906479
   9.48070265  5.68842173  6.79906479
   9.48070265  9.48070265  6.79906479
   1.89614063  0.00000000  5.20665296
   1.89614063  3.79228126  5.20665296
   1.89614063  7.58456253  5.20665296
   5.68842173  0.00000000  5.20665296
   5.68842173  3.79228126  5.20665296
   5.68842173  7.58456253  5.20665296
   9.48070265  0.00000000  5.20665296
   9.48070265  3.79228126  5.20665296
   9.48070265  7.58456253  5.20665296
   0.00000000  0.00000000  7.60779651
   0.00000000  3.79228126  7.60779651
   0.00000000  7.58456253  7.60779651
   3.79228126  0.00000000  7.60779651
   3.79228126  3.79228126  7.60779651
   3.79228126  7.58456253  7.60779651
   7.58456253  0.00000000  7.60779651
   7.58456253  3.79228126  7.60779651
   7.58456253  7.58456253  7.60779651
   1.89614063  0.00000000  9.20020834
   1.89614063  3.79228126  9.20020834
   1.89614063  7.58456253  9.20020834
   5.68842173  0.00000000  9.20020834
   5.68842173  3.79228126  9.20020834
   5.68842173  7.58456253  9.20020834
   9.48070265  0.00000000  9.20020834
   9.48070265  3.79228126  9.20020834
   9.48070265  7.58456253  9.20020834
   0.00000000  0.00000000  1.99677755
   0.00000000  3.79228126  1.99677755
   0.00000000  7.58456253  1.99677755
   3.79228126  0.00000000  1.99677755
   3.79228126  3.79228126  1.99677755
   3.79228126  7.58456253  1.99677755
   7.58456253  0.00000000  1.99677755
   7.58456253  3.79228126  1.99677755
   7.58456253  7.58456253  1.99677755
   0.00000000  1.89614063  0.40436607
   0.00000000  5.68842173  0.40436607
   0.00000000  9.48070265  0.40436607
   3.79228126  1.89614063  0.40436607
   3.79228126  5.68842173  0.40436607
   3.79228126  9.48070265  0.40436607
   7.58456253  1.89614063  0.40436607
   7.58456253  5.68842173  0.40436607
   7.58456253  9.48070265  0.40436607
   1.89614063  1.89614063  2.80550970
   1.89614063  5.68842173  2.80550970
   1.89614063  9.48070265  2.80550970
   5.68842173  1.89614063  2.80550970
   5.68842173  5.68842173  2.80550970
   5.68842173  9.48070265  2.80550970
   9.48070265  1.89614063  2.80550970
   9.48070265  5.68842173  2.80550970
   9.48070265  9.48070265  2.80550970



--------------------------------------------------------------------------------------------------------


 k-point   1 :   0.2500 0.2500 0.2500  plane waves:   22590
 k-point   2 :  -0.2500 0.2500 0.2500  plane waves:   22590
 k-point   3 :  -0.2500-0.2500 0.2500  plane waves:   22590
 k-point   4 :   0.2500-0.2500 0.2500  plane waves:   22590

 maximum and minimum number of plane-waves per node :     22590    22590

 maximum number of plane-waves:     22590
 maximum index in each direction:
   IXMAX=   18   IYMAX=   18   IZMAX=   15
   IXMIN=  -18   IYMIN=  -18   IZMIN=  -15


 serial   3D FFT for wavefunctions
 parallel 3D FFT for charge:
    minimum data exchange during FFTs selected (reduces bandwidth)


 total amount of memory used by VASP MPI-rank0   266725. kBytes
=======================================================================

   base      :      30000. kBytes
   nonlr-proj:      19556. kBytes
   fftplans  :      10927. kBytes
   grid      :      23181. kBytes
   one-center:       1679. kBytes
   wavefun   :     181382. kBytes

     INWAV:  cpu time      0.0001: real time      0.0004
 Broyden mixing: mesh for mixing (old mesh)
   NGX = 37   NGY = 37   NGZ = 31
  (NGX  =112   NGY  =112   NGZ  = 96)
  gives a total of  42439 points

 initial charge density was supplied:
 charge density of overlapping atoms calculated
 number of electron     792.0000000 magnetization
 keeping initial charge density in first step


--------------------------------------------------------------------------------------------------------


 Maximum index for non-local projection operator         1743
 Maximum index for augmentation-charges         1189 (set IRDMAX)


--------------------------------------------------------------------------------------------------------


 First call to EWALD:  gamma=   0.165
 Maximum number of real-space cells 3x 3x 3
 Maximum number of reciprocal cells 3x 3x 3

    FEWALD:  cpu time      0.1904: real time      0.1913


--------------------------------------- Iteration      1(   1)  ---------------------------------------


    POTLOK:  cpu time      0.2035: real time      0.2054
    SETDIJ:  cpu time      0.0165: real time      0.0167
     EDDAV:  cpu time     13.2253: real time     13.3354
       DOS:  cpu time      0.0032: real time      0.0036
    --------------------------------------------
      LOOP:  cpu time     13.4484: real time     13.5611

 eigenvalue-minimisations  :  3824
 total energy-change (2. order) : 0.1155970E+05  (-0.3305520E+05)
 number of electron     792.0000000 magnetization
 augmentation part      792.0000000 magnetization

 Free energy of the ion-electron system (eV)
  ---------------------------------------------------
  alpha Z        PSCENC =      3563.47650690
  Ewald energy   TEWEN  =    -48590.20003588
  -Hartree energ DENC   =    -18839.85404485
  -exchange      EXHF   =         0.00000000
  -V(xc)+E(xc)   XCENC  =      3286.84141240
  PAW double counting   =     54431.09303398   -54537.79254336
  entropy T*S    EENTRO =        -0.14240418
  eigenvalues    EBANDS =      3589.88128533
  atomic energy  EATOM  =     68656.39924158
  Solvation  Ediel_sol  =         0.00000000
  ---------------------------------------------------
  free energy    TOTEN  =     11559.70245192 eV

  energy without entropy =    11559.84485610  energy(sigma->0) =    11559.77365401


--------------------------------------------------------------------------------------------------------




--------------------------------------- Iteration      1(   2)  ---------------------------------------


     EDDAV:  cpu time     13.0855: real time     13.1864
       DOS:  cpu time      0.0009: real time      0.0009
    --------------------------------------------
      LOOP:  cpu time     13.0864: real time     13.1873

 eigenvalue-minimisations  :  3808
 total energy-change (2. order) :-0.9986816E+04  (-0.9556355E+04)
 number of electron     792.0000000 magnetization
 augmentation part      792.0000000 magnetization

 Free energy of the ion-electron system (eV)
  ---------------------------------------------------
  alpha Z        PSCENC =      3563.47650690
  Ewald energy   TEWEN  =    -48590.20003588
  -Hartree energ DENC   =    -18839.85404485
  -exchange      EXHF   =         0.00000000
  -V(xc)+E(xc)   XCENC  =      3286.84141240
  PAW double counting   =     54431.09303398   -54537.79254336
  entropy T*S    EENTRO =        -0.28638209
  eigenvalues    EBANDS =     -6396.79090023
  atomic energy  EATOM  =     68656.39924158
  Solvation  Ediel_sol  =         0.00000000
  ---------------------------------------------------
  free energy    TOTEN  =      1572.88628845 eV

  energy without entropy =     1573.17267054  energy(sigma->0) =     1573.02947949


--------------------------------------------------------------------------------------------------------




--------------------------------------- Iteration      1(   3)  ---------------------------------------


     EDDAV:  cpu time     14.8397: real time     14.9526
       DOS:  cpu time      0.0007: real time      0.0007
    --------------------------------------------
      LOOP:  cpu time     14.8404: real time     14.9533

 eigenvalue-minimisations  :  4416
 total energy-change (2. order) :-0.2641648E+04  (-0.2570037E+04)
 number of electron     792.0000000 magnetization
 augmentation part      792.0000000 magnetization

 Free energy of the ion-electron system (eV)
  ---------------------------------------------------
  alpha Z        PSCENC =      3563.47650690
  Ewald energy   TEWEN  =    -48590.20003588
  -Hartree energ DENC   =    -18839.85404485
  -exchange      EXHF   =         0.00000000
  -V(xc)+E(xc)   XCENC  =      3286.84141240
  PAW double counting   =     54431.09303398   -54537.79254336
  entropy T*S    EENTRO =        -0.00000000
  eigenvalues    EBANDS =     -9038.72542713
  atomic energy  EATOM  =     68656.39924158
  Solvation  Ediel_sol  =         0.00000000
  ---------------------------------------------------
  free energy    TOTEN  =     -1068.76185635 eV

  energy without entropy =    -1068.76185635  energy(sigma->0) =    -1068.76185635


--------------------------------------------------------------------------------------------------------




--------------------------------------- Iteration      1(   4)  ---------------------------------------


     EDDAV:  cpu time     16.6636: real time     16.7898
       DOS:  cpu time      0.0006: real time      0.0006
    --------------------------------------------
      LOOP:  cpu time     16.6642: real time     16.7904

 eigenvalue-minimisations  :  5008
 total energy-change (2. order) :-0.2044607E+03  (-0.2033490E+03)
 number of electron     792.0000000 magnetization
 augmentation part      792.0000000 magnetization

 Free energy of the ion-electron system (eV)
  ---------------------------------------------------
  alpha Z        PSCENC =      3563.47650690
  Ewald energy   TEWEN  =    -48590.20003588
  -Hartree energ DENC   =    -18839.85404485
  -exchange      EXHF   =         0.00000000
  -V(xc)+E(xc)   XCENC  =      3286.84141240
  PAW double counting   =     54431.09303398   -54537.79254336
  entropy T*S    EENTRO =        -0.00000000
  eigenvalues    EBANDS =     -9243.18613091
  atomic energy  EATOM  =     68656.39924158
  Solvation  Ediel_sol  =         0.00000000
  ---------------------------------------------------
  free energy    TOTEN  =     -1273.22256014 eV

  energy without entropy =    -1273.22256014  energy(sigma->0) =    -1273.22256014


--------------------------------------------------------------------------------------------------------




--------------------------------------- Iteration      1(   5)  ---------------------------------------


     EDDAV:  cpu time     16.4601: real time     16.5899
       DOS:  cpu time      0.0007: real time      0.0007
    CHARGE:  cpu time      0.2230: real time      0.2265
    MIXING:  cpu time      0.0133: real time      0.0134
    --------------------------------------------
      LOOP:  cpu time     16.6970: real time     16.8306

 eigenvalue-minimisations  :  4936
 total energy-change (2. order) :-0.5497442E+01  (-0.5484395E+01)
 number of electron     792.0003051 magnetization
 augmentation part      202.2371912 magnetization

 Broyden mixing:
  rms(total) = 0.17233E+02    rms(broyden)= 0.17231E+02
  rms(prec ) = 0.19170E+02
  weight for this iteration     100.00

 Free energy of the ion-electron system (eV)
  ---------------------------------------------------
  alpha Z        PSCENC =      3563.47650690
  Ewald energy   TEWEN  =    -48590.20003588
  -Hartree energ DENC   =    -18839.85404485
  -exchange      EXHF   =         0.00000000
  -V(xc)+E(xc)   XCENC  =      3286.84141240
  PAW double counting   =     54431.09303398   -54537.79254336
  entropy T*S    EENTRO =        -0.00000000
  eigenvalues    EBANDS =     -9248.68357245
  atomic energy  EATOM  =     68656.39924158
  Solvation  Ediel_sol  =         0.00000000
  ---------------------------------------------------
  free energy    TOTEN  =     -1278.72000168 eV

  energy without entropy =    -1278.72000168  energy(sigma->0) =    -1278.72000168


--------------------------------------------------------------------------------------------------------




--------------------------------------- Iteration      1(   6)  ---------------------------------------


    POTLOK:  cpu time      0.2055: real time      0.2076
    SETDIJ:  cpu time      0.0141: real time      0.0142
     EDDAV:  cpu time     16.5127: real time     16.6344
       DOS:  cpu time      0.0007: real time      0.0007
    CHARGE:  cpu time      0.2247: real time      0.2278
    MIXING:  cpu time      0.0132: real time      0.0175
    --------------------------------------------
      LOOP:  cpu time     16.9710: real time     17.1024

 eigenvalue-minimisations  :  4984
 total energy-change (2. order) : 0.3022456E+03  (-0.1974342E+03)
 number of electron     792.0002460 magnetization
 augmentation part      214.1073691 magnetization

 Broyden mixing:
  rms(total) = 0.52925E+01    rms(broyden)= 0.52875E+01
  rms(prec ) = 0.58204E+01
  weight for this iteration     100.00

 eigenvalues of (default mixing * dielectric matrix)
  average eigenvalue GAMMA=   0.9645
  0.9645

 Free energy of the ion-electron system (eV)
  ---------------------------------------------------
  alpha Z        PSCENC =      3563.47650690
  Ewald energy   TEWEN  =    -48590.20003588
  -Hartree energ DENC   =    -19064.15534210
  -exchange      EXHF   =         0.00000000
  -V(xc)+E(xc)   XCENC  =      3337.81527906
  PAW double counting   =     68244.29290294   -68476.59494527
  entropy T*S    EENTRO =        -0.00000000
  eigenvalues    EBANDS =     -8647.50798509
  atomic energy  EATOM  =     68656.39924158
  Solvation  Ediel_sol  =         0.00000000
  ---------------------------------------------------
  free energy    TOTEN  =      -976.47437785 eV

  energy without entropy =     -976.47437785  energy(sigma->0) =     -976.47437785


--------------------------------------------------------------------------------------------------------




--------------------------------------- Iteration      1(   7)  ---------------------------------------


    POTLOK:  cpu time      0.1875: real time      0.1890
    SETDIJ:  cpu time      0.0285: real time      0.0286
     EDDAV:  cpu time     17.4459: real time     17.5753
       DOS:  cpu time      0.0006: real time      0.0006
    CHARGE:  cpu time      0.2187: real time      0.2215
    MIXING:  cpu time      0.0135: real time      0.0141
    --------------------------------------------
      LOOP:  cpu time     17.8945: real time     18.0290

 eigenvalue-minimisations  :  5328
 total energy-change (2. order) : 0.4409677E+01  (-0.2841406E+02)
 number of electron     792.0002650 magnetization
 augmentation part      207.3468618 magnetization

 Broyden mixing:
  rms(total) = 0.45896E+01    rms(broyden)= 0.45893E+01
  rms(prec ) = 0.47818E+01
  weight for this iteration     100.00

 eigenvalues of (default mixing * dielectric matrix)
  average eigenvalue GAMMA=   1.8523
  0.7378  2.9669

 Free energy of the ion-electron system (eV)
  ---------------------------------------------------
  alpha Z        PSCENC =      3563.47650690
  Ewald energy   TEWEN  =    -48590.20003588
  -Hartree energ DENC   =    -18905.75439095
  -exchange      EXHF   =         0.00000000
  -V(xc)+E(xc)   XCENC  =      3318.54019475
  PAW double counting   =     75226.22329191   -75469.57630519
  entropy T*S    EENTRO =        -0.00000000
  eigenvalues    EBANDS =     -8771.17320357
  atomic energy  EATOM  =     68656.39924158
  Solvation  Ediel_sol  =         0.00000000
  ---------------------------------------------------
  free energy    TOTEN  =      -972.06470045 eV

  energy without entropy =     -972.06470045  energy(sigma->0) =     -972.06470045


--------------------------------------------------------------------------------------------------------




--------------------------------------- Iteration      1(   8)  ---------------------------------------


    POTLOK:  cpu time      0.1944: real time      0.1965
    SETDIJ:  cpu time      0.0187: real time      0.0188
     EDDAV:  cpu time     16.6706: real time     16.7927
       DOS:  cpu time      0.0012: real time      0.0012
    CHARGE:  cpu time      0.2236: real time      0.2271
    MIXING:  cpu time      0.0130: real time      0.0131
    --------------------------------------------
      LOOP:  cpu time     17.1214: real time     17.2494

 eigenvalue-minimisations  :  5032
 total energy-change (2. order) :-0.2810814E+00  (-0.1117139E+02)
 number of electron     792.0002584 magnetization
 augmentation part      215.6353725 magnetization

 Broyden mixing:
  rms(total) = 0.34021E+01    rms(broyden)= 0.34019E+01
  rms(prec ) = 0.37051E+01
  weight for this iteration     100.00

 eigenvalues of (default mixing * dielectric matrix)
  average eigenvalue GAMMA=   1.2347
  2.1768  0.9288  0.5986

 Free energy of the ion-electron system (eV)
  ---------------------------------------------------
  alpha Z        PSCENC =      3563.47650690
  Ewald energy   TEWEN  =    -48590.20003588
  -Hartree energ DENC   =    -18527.88875516
  -exchange      EXHF   =         0.00000000
  -V(xc)+E(xc)   XCENC  =      3303.75077195
  PAW double counting   =     93929.11350841   -94245.18749648
  entropy T*S    EENTRO =        -0.00000000
  eigenvalues    EBANDS =     -9061.80952317
  atomic energy  EATOM  =     68656.39924158
  Solvation  Ediel_sol  =         0.00000000
  ---------------------------------------------------
  free energy    TOTEN  =      -972.34578185 eV

  energy without entropy =     -972.34578185  energy(sigma->0) =     -972.34578185


--------------------------------------------------------------------------------------------------------




--------------------------------------- Iteration      1(   9)  ---------------------------------------


    POTLOK:  cpu time      0.1960: real time      0.1983
    SETDIJ:  cpu time      0.0192: real time      0.0193
     EDDAV:  cpu time     16.8670: real time     16.9922
       DOS:  cpu time      0.0009: real time      0.0009
    CHARGE:  cpu time      0.2192: real time      0.2223
    MIXING:  cpu time      0.0137: real time      0.0140
    --------------------------------------------
      LOOP:  cpu time     17.3161: real time     17.4470

 eigenvalue-minimisations  :  5072
 total energy-change (2. order) : 0.5722130E+01  (-0.3539930E+01)
 number of electron     792.0002632 magnetization
 augmentation part      211.4677532 magnetization

 Broyden mixing:
  rms(total) = 0.24576E+00    rms(broyden)= 0.24500E+00
  rms(prec ) = 0.26905E+00
  weight for this iteration     100.00

 eigenvalues of (default mixing * dielectric matrix)
  average eigenvalue GAMMA=   1.3496
  2.2873  1.3868  1.1053  0.6189

 Free energy of the ion-electron system (eV)
  ---------------------------------------------------
  alpha Z        PSCENC =      3563.47650690
  Ewald energy   TEWEN  =    -48590.20003588
  -Hartree energ DENC   =    -18674.59519676
  -exchange      EXHF   =         0.00000000
  -V(xc)+E(xc)   XCENC  =      3308.71320318
  PAW double counting   =     88573.49864099   -88869.95498171
  entropy T*S    EENTRO =        -0.00000000
  eigenvalues    EBANDS =     -8933.96102988
  atomic energy  EATOM  =     68656.39924158
  Solvation  Ediel_sol  =         0.00000000
  ---------------------------------------------------
  free energy    TOTEN  =      -966.62365158 eV

  energy without entropy =     -966.62365158  energy(sigma->0) =     -966.62365158


--------------------------------------------------------------------------------------------------------




--------------------------------------- Iteration      1(  10)  ---------------------------------------


    POTLOK:  cpu time      0.1970: real time      0.1992
    SETDIJ:  cpu time      0.0182: real time      0.0183
     EDDAV:  cpu time     17.1129: real time     17.2395
       DOS:  cpu time      0.0009: real time      0.0009
    CHARGE:  cpu time      0.2183: real time      0.2211
    MIXING:  cpu time      0.0138: real time      0.0139
    --------------------------------------------
      LOOP:  cpu time     17.5611: real time     17.6929

 eigenvalue-minimisations  :  5176
 total energy-change (2. order) :-0.1035350E+00  (-0.1275153E+00)
 number of electron     792.0002618 magnetization
 augmentation part      211.6418764 magnetization

 Broyden mixing:
  rms(total) = 0.28959E+00    rms(broyden)= 0.28956E+00
  rms(prec ) = 0.33347E+00
  weight for this iteration     100.00

 eigenvalues of (default mixing * dielectric matrix)
  average eigenvalue GAMMA=   1.3690
  2.5396  1.8608  0.9443  0.9029  0.5971

 Free energy of the ion-electron system (eV)
  ---------------------------------------------------
  alpha Z        PSCENC =      3563.47650690
  Ewald energy   TEWEN  =    -48590.20003588
  -Hartree energ DENC   =    -18721.27142732
  -exchange      EXHF   =         0.00000000
  -V(xc)+E(xc)   XCENC  =      3312.18705492
  PAW double counting   =     89047.80309399   -89349.46760332
  entropy T*S    EENTRO =        -0.00000000
  eigenvalues    EBANDS =     -8885.65401743
  atomic energy  EATOM  =     68656.39924158
  Solvation  Ediel_sol  =         0.00000000
  ---------------------------------------------------
  free energy    TOTEN  =      -966.72718655 eV

  energy without entropy =     -966.72718655  energy(sigma->0) =     -966.72718655


--------------------------------------------------------------------------------------------------------




--------------------------------------- Iteration      1(  11)  ---------------------------------------


    POTLOK:  cpu time      0.1980: real time      0.1997
    SETDIJ:  cpu time      0.0193: real time      0.0194
     EDDAV:  cpu time     17.3498: real time     17.4835
       DOS:  cpu time      0.0007: real time      0.0007
    CHARGE:  cpu time      0.2216: real time      0.2231
    MIXING:  cpu time      0.0140: real time      0.0141
    --------------------------------------------
      LOOP:  cpu time     17.8034: real time     17.9404

 eigenvalue-minimisations  :  5344
 total energy-change (2. order) : 0.5827639E-01  (-0.3110128E-01)
 number of electron     792.0002622 magnetization
 augmentation part      211.2987144 magnetization

 Broyden mixing:
  rms(total) = 0.62450E-01    rms(broyden)= 0.62410E-01
  rms(prec ) = 0.76735E-01
  weight for this iteration     100.00

 eigenvalues of (default mixing * dielectric matrix)
  average eigenvalue GAMMA=   1.2908
  2.5547  1.5915  1.3118  1.0674  0.5801  0.6393

 Free energy of the ion-electron system (eV)
  ---------------------------------------------------
  alpha Z        PSCENC =      3563.47650690
  Ewald energy   TEWEN  =    -48590.20003588
  -Hartree energ DENC   =    -18737.88738033
  -exchange      EXHF   =         0.00000000
  -V(xc)+E(xc)   XCENC  =      3312.89966619
  PAW double counting   =     89191.05643080   -89493.53452556
  entropy T*S    EENTRO =        -0.00000000
  eigenvalues    EBANDS =     -8868.87881386
  atomic energy  EATOM  =     68656.39924158
  Solvation  Ediel_sol  =         0.00000000
  ---------------------------------------------------
  free energy    TOTEN  =      -966.66891016 eV

  energy without entropy =     -966.66891016  energy(sigma->0) =     -966.66891016


--------------------------------------------------------------------------------------------------------




--------------------------------------- Iteration      1(  12)  ---------------------------------------


    POTLOK:  cpu time      0.1954: real time      0.1976
    SETDIJ:  cpu time      0.0141: real time      0.0141
     EDDAV:  cpu time     17.7272: real time     17.8591
       DOS:  cpu time      0.0007: real time      0.0007
    CHARGE:  cpu time      0.2189: real time      0.2202
    MIXING:  cpu time      0.0131: real time      0.0131
    --------------------------------------------
      LOOP:  cpu time     18.1693: real time     18.3050

 eigenvalue-minimisations  :  5344
 total energy-change (2. order) :-0.9156502E-06  (-0.1007204E-01)
 number of electron     792.0002626 magnetization
 augmentation part      211.1908135 magnetization

 Broyden mixing:
  rms(total) = 0.46338E-01    rms(broyden)= 0.46279E-01
  rms(prec ) = 0.55307E-01
  weight for this iteration     100.00

 eigenvalues of (default mixing * dielectric matrix)
  average eigenvalue GAMMA=   1.2661
  2.5853  1.7216  1.7216  0.9637  0.7405  0.5651  0.5651

 Free energy of the ion-electron system (eV)
  ---------------------------------------------------
  alpha Z        PSCENC =      3563.47650690
  Ewald energy   TEWEN  =    -48590.20003588
  -Hartree energ DENC   =    -18734.68502183
  -exchange      EXHF   =         0.00000000
  -V(xc)+E(xc)   XCENC  =      3312.52753149
  PAW double counting   =     89232.22261656   -89534.17006906
  entropy T*S    EENTRO =        -0.00000000
  eigenvalues    EBANDS =     -8872.23968085
  atomic energy  EATOM  =     68656.39924158
  Solvation  Ediel_sol  =         0.00000000
  ---------------------------------------------------
  free energy    TOTEN  =      -966.66891108 eV

  energy without entropy =     -966.66891108  energy(sigma->0) =     -966.66891108


--------------------------------------------------------------------------------------------------------




--------------------------------------- Iteration      1(  13)  ---------------------------------------


    POTLOK:  cpu time      0.1723: real time      0.1742
    SETDIJ:  cpu time      0.0205: real time      0.0206
     EDDAV:  cpu time     17.3539: real time     17.4818
       DOS:  cpu time      0.0007: real time      0.0007
    CHARGE:  cpu time      0.2241: real time      0.2254
    MIXING:  cpu time      0.0148: real time      0.0150
    --------------------------------------------
      LOOP:  cpu time     17.7863: real time     17.9178

 eigenvalue-minimisations  :  5312
 total energy-change (2. order) : 0.1172340E-02  (-0.1014950E-02)
 number of electron     792.0002625 magnetization
 augmentation part      211.2289301 magnetization

 Broyden mixing:
  rms(total) = 0.21290E-01    rms(broyden)= 0.21287E-01
  rms(prec ) = 0.25139E-01
  weight for this iteration     100.00

 eigenvalues of (default mixing * dielectric matrix)
  average eigenvalue GAMMA=   1.2425
  2.5383  1.7887  1.7887  1.0127  0.8131  0.8131  0.6120  0.5732

 Free energy of the ion-electron system (eV)
  ---------------------------------------------------
  alpha Z        PSCENC =      3563.47650690
  Ewald energy   TEWEN  =    -48590.20003588
  -Hartree energ DENC   =    -18735.43810287
  -exchange      EXHF   =         0.00000000
  -V(xc)+E(xc)   XCENC  =      3312.60470350
  PAW double counting   =     89245.77261668   -89547.60991320
  entropy T*S    EENTRO =        -0.00000000
  eigenvalues    EBANDS =     -8871.67275545
  atomic energy  EATOM  =     68656.39924158
  Solvation  Ediel_sol  =         0.00000000
  ---------------------------------------------------
  free energy    TOTEN  =      -966.66773874 eV

  energy without entropy =     -966.66773874  energy(sigma->0) =     -966.66773874


--------------------------------------------------------------------------------------------------------




--------------------------------------- Iteration      1(  14)  ---------------------------------------


    POTLOK:  cpu time      0.2056: real time      0.2081
    SETDIJ:  cpu time      0.0089: real time      0.0089
     EDDAV:  cpu time     17.6011: real time     17.7300
       DOS:  cpu time      0.0007: real time      0.0008
    CHARGE:  cpu time      0.2160: real time      0.2184
    MIXING:  cpu time      0.0156: real time      0.0157
    --------------------------------------------
      LOOP:  cpu time     18.0479: real time     18.1818

 eigenvalue-minimisations  :  5344
 total energy-change (2. order) :-0.1779498E-03  (-0.1610753E-03)
 number of electron     792.0002625 magnetization
 augmentation part      211.2123697 magnetization

 Broyden mixing:
  rms(total) = 0.18812E-01    rms(broyden)= 0.18810E-01
  rms(prec ) = 0.22476E-01
  weight for this iteration     100.00

 eigenvalues of (default mixing * dielectric matrix)
  average eigenvalue GAMMA=   1.2678
  2.4536  2.4536  1.8435  1.0076  0.9046  0.9046  0.7149  0.5902  0.5375

 Free energy of the ion-electron system (eV)
  ---------------------------------------------------
  alpha Z        PSCENC =      3563.47650690
  Ewald energy   TEWEN  =    -48590.20003588
  -Hartree energ DENC   =    -18737.43639427
  -exchange      EXHF   =         0.00000000
  -V(xc)+E(xc)   XCENC  =      3312.70938393
  PAW double counting   =     89202.72418941   -89504.36707475
  entropy T*S    EENTRO =        -0.00000000
  eigenvalues    EBANDS =     -8869.97373362
  atomic energy  EATOM  =     68656.39924158
  Solvation  Ediel_sol  =         0.00000000
  ---------------------------------------------------
  free energy    TOTEN  =      -966.66791669 eV

  energy without entropy =     -966.66791669  energy(sigma->0) =     -966.66791669


--------------------------------------------------------------------------------------------------------




--------------------------------------- Iteration      1(  15)  ---------------------------------------


    POTLOK:  cpu time      0.1925: real time      0.1944
    SETDIJ:  cpu time      0.0228: real time      0.0230
     EDDAV:  cpu time     17.5620: real time     17.6895
       DOS:  cpu time      0.0010: real time      0.0010
    CHARGE:  cpu time      0.2207: real time      0.2220
    MIXING:  cpu time      0.0161: real time      0.0163
    --------------------------------------------
      LOOP:  cpu time     18.0151: real time     18.1461

 eigenvalue-minimisations  :  5344
 total energy-change (2. order) : 0.1467929E-03  (-0.2164932E-03)
 number of electron     792.0002624 magnetization
 augmentation part      211.2307819 magnetization

 Broyden mixing:
  rms(total) = 0.56603E-02    rms(broyden)= 0.56546E-02
  rms(prec ) = 0.67044E-02
  weight for this iteration     100.00

 eigenvalues of (default mixing * dielectric matrix)
  average eigenvalue GAMMA=   1.2532
  2.7576  2.5653  1.8490  1.0030  1.0030  0.8106  0.8106  0.6181  0.5572  0.5572

 Free energy of the ion-electron system (eV)
  ---------------------------------------------------
  alpha Z        PSCENC =      3563.47650690
  Ewald energy   TEWEN  =    -48590.20003588
  -Hartree energ DENC   =    -18738.56341006
  -exchange      EXHF   =         0.00000000
  -V(xc)+E(xc)   XCENC  =      3312.78774535
  PAW double counting   =     89186.20374232   -89487.70311015
  entropy T*S    EENTRO =        -0.00000000
  eigenvalues    EBANDS =     -8869.06844997
  atomic energy  EATOM  =     68656.39924158
  Solvation  Ediel_sol  =         0.00000000
  ---------------------------------------------------
  free energy    TOTEN  =      -966.66776990 eV

  energy without entropy =     -966.66776990  energy(sigma->0) =     -966.66776990


--------------------------------------------------------------------------------------------------------




--------------------------------------- Iteration      1(  16)  ---------------------------------------


    POTLOK:  cpu time      0.1945: real time      0.1962
    SETDIJ:  cpu time      0.0185: real time      0.0186
     EDDAV:  cpu time     17.1683: real time     17.2967
       DOS:  cpu time      0.0026: real time      0.0026
    CHARGE:  cpu time      0.2254: real time      0.2268
    MIXING:  cpu time      0.0161: real time      0.0166
    --------------------------------------------
      LOOP:  cpu time     17.6254: real time     17.7575

 eigenvalue-minimisations  :  5280
 total energy-change (2. order) :-0.1582444E-04  (-0.5750895E-04)
 number of electron     792.0002624 magnetization
 augmentation part      211.2412451 magnetization

 Broyden mixing:
  rms(total) = 0.54548E-02    rms(broyden)= 0.54519E-02
  rms(prec ) = 0.64654E-02
  weight for this iteration     100.00

 eigenvalues of (default mixing * dielectric matrix)
  average eigenvalue GAMMA=   1.2345
  2.7904  2.5364  1.6082  1.3426  0.9053  0.9053  0.9513  0.8154  0.6052  0.6052
  0.5144

 Free energy of the ion-electron system (eV)
  ---------------------------------------------------
  alpha Z        PSCENC =      3563.47650690
  Ewald energy   TEWEN  =    -48590.20003588
  -Hartree energ DENC   =    -18738.81582680
  -exchange      EXHF   =         0.00000000
  -V(xc)+E(xc)   XCENC  =      3312.81134996
  PAW double counting   =     89189.53864648   -89491.03164105
  entropy T*S    EENTRO =        -0.00000000
  eigenvalues    EBANDS =     -8868.84602691
  atomic energy  EATOM  =     68656.39924158
  Solvation  Ediel_sol  =         0.00000000
  ---------------------------------------------------
  free energy    TOTEN  =      -966.66778572 eV

  energy without entropy =     -966.66778572  energy(sigma->0) =     -966.66778572


--------------------------------------------------------------------------------------------------------




--------------------------------------- Iteration      1(  17)  ---------------------------------------


    POTLOK:  cpu time      0.2004: real time      0.2029
    SETDIJ:  cpu time      0.0089: real time      0.0090
     EDDAV:  cpu time     17.7097: real time     17.8394
       DOS:  cpu time      0.0031: real time      0.0031
    CHARGE:  cpu time      0.2215: real time      0.2228
    MIXING:  cpu time      0.0165: real time      0.0167
    --------------------------------------------
      LOOP:  cpu time     18.1601: real time     18.2938

 eigenvalue-minimisations  :  5376
 total energy-change (2. order) : 0.1968203E-04  (-0.2128835E-04)
 number of electron     792.0002624 magnetization
 augmentation part      211.2354723 magnetization

 Broyden mixing:
  rms(total) = 0.14704E-02    rms(broyden)= 0.14686E-02
  rms(prec ) = 0.16951E-02
  weight for this iteration     100.00

 eigenvalues of (default mixing * dielectric matrix)
  average eigenvalue GAMMA=   1.2074
  2.8564  2.4259  1.6907  1.4530  1.0073  0.8604  0.8604  0.8160  0.8160  0.6004
  0.5777  0.5248

 Free energy of the ion-electron system (eV)
  ---------------------------------------------------
  alpha Z        PSCENC =      3563.47650690
  Ewald energy   TEWEN  =    -48590.20003588
  -Hartree energ DENC   =    -18738.90042052
  -exchange      EXHF   =         0.00000000
  -V(xc)+E(xc)   XCENC  =      3312.80967587
  PAW double counting   =     89187.98242011   -89489.48412472
  entropy T*S    EENTRO =        -0.00000000
  eigenvalues    EBANDS =     -8868.75102938
  atomic energy  EATOM  =     68656.39924158
  Solvation  Ediel_sol  =         0.00000000
  ---------------------------------------------------
  free energy    TOTEN  =      -966.66776604 eV

  energy without entropy =     -966.66776604  energy(sigma->0) =     -966.66776604


--------------------------------------------------------------------------------------------------------




--------------------------------------- Iteration      1(  18)  ---------------------------------------


    POTLOK:  cpu time      0.1993: real time      0.2016
    SETDIJ:  cpu time      0.0140: real time      0.0141
     EDDAV:  cpu time     17.5158: real time     17.6432
       DOS:  cpu time      0.0006: real time      0.0006
    CHARGE:  cpu time      0.2158: real time      0.2182
    MIXING:  cpu time      0.0147: real time      0.0148
    --------------------------------------------
      LOOP:  cpu time     17.9602: real time     18.0926

 eigenvalue-minimisations  :  5344
 total energy-change (2. order) :-0.5675494E-05  (-0.1769601E-05)
 number of electron     792.0002624 magnetization
 augmentation part      211.2372177 magnetization

 Broyden mixing:
  rms(total) = 0.17793E-02    rms(broyden)= 0.17792E-02
  rms(prec ) = 0.21199E-02
  weight for this iteration     100.00

 eigenvalues of (default mixing * dielectric matrix)
  average eigenvalue GAMMA=   1.2300
  2.9089  2.3336  1.8713  1.8713  0.9162  0.9162  0.9828  0.9169  0.9169  0.6686
  0.5883  0.5883  0.5102

 Free energy of the ion-electron system (eV)
  ---------------------------------------------------
  alpha Z        PSCENC =      3563.47650690
  Ewald energy   TEWEN  =    -48590.20003588
  -Hartree energ DENC   =    -18738.81441742
  -exchange      EXHF   =         0.00000000
  -V(xc)+E(xc)   XCENC  =      3312.80468282
  PAW double counting   =     89190.64621234   -89492.16094818
[...]
      7.58456      3.79228      1.99678    -0.00000 -0.00722 -2.89589 ( -0.63476  6.00000)
      7.58456      7.58456      1.99678     0.00001 -0.00640 -2.89455 ( -0.63485  6.00000)
      0.00000      1.89614      0.40437     0.00005  0.00103 -2.89488 ( -0.63483  6.00000)
      0.00000      5.68842      0.40437     0.00000 -0.00074 -2.89470 ( -0.63480  6.00000)
      0.00000      9.48070      0.40437     0.00001 -0.00039 -2.89421 ( -0.63483  6.00000)
      3.79228      1.89614      0.40437    -0.00004  0.00097 -2.89495 ( -0.63484  6.00000)
      3.79228      5.68842      0.40437    -0.00004 -0.00074 -2.89528 ( -0.63481  6.00000)
      3.79228      9.48070      0.40437    -0.00001 -0.00030 -2.89429 ( -0.63484  6.00000)
      7.58456      1.89614      0.40437     0.00001 -0.00788 -2.89561 ( -0.63482  6.00000)
      7.58456      5.68842      0.40437     0.00004 -0.00069 -2.89414 ( -0.63481  6.00000)
      7.58456      9.48070      0.40437     0.00000 -0.00112 -2.89521 ( -0.63484  6.00000)
      1.89614      1.89614      2.80551    -0.00031 -0.00006 -2.89491 ( -0.63484  6.00000)
      1.89614      5.68842      2.80551    -0.00024 -0.00001 -2.89351 ( -0.63483  6.00000)
      1.89614      9.48070      2.80551    -0.00030 -0.00001 -2.89571 ( -0.63483  6.00000)
      5.68842      1.89614      2.80551    -0.00191 -0.00005 -2.89451 ( -0.63479  6.00000)
      5.68842      5.68842      2.80551     0.00014  0.00003 -2.89327 ( -0.63480  6.00000)
      5.68842      9.48070      2.80551    -0.00026 -0.00008 -2.89526 ( -0.63481  6.00000)
      9.48070      1.89614      2.80551     0.00227 -0.00008 -2.89462 ( -0.63482  6.00000)
      9.48070      5.68842      2.80551     0.00016  0.00003 -2.89388 ( -0.63483  6.00000)
      9.48070      9.48070      2.80551     0.00058 -0.00004 -2.89531 ( -0.63484  6.00000)
 -----------------------------------------------------------------------------------------
    total drift (improves with k-points):   0.00003 -0.00019 -0.07154




--------------------------------------------------------------------------------------------------------




 MACROSCOPIC STATIC DIELECTRIC TENSOR (including local field effects in DFT)
 ------------------------------------------------------
           6.958962    -0.000011    -0.000006
          -0.000010     6.958655     0.000885
          -0.000005     0.000896     6.373031
 ------------------------------------------------------



--------------------------------------------------------------------------------------------------------




--------------------------------------------------------------------------------------------------------




 MACROSCOPIC STATIC DIELECTRIC TENSOR (including local field effects in DFT)
 ------------------------------------------------------
           6.958962    -0.000011    -0.000006
          -0.000010     6.958655     0.000885
          -0.000005     0.000896     6.373031
 ------------------------------------------------------


 PIEZOELECTRIC TENSOR (including local field effects)  for field in x, y, z        (e  Angst)
          XX          YY          ZZ          XY          YZ          ZX
  --------------------------------------------------------------------------------
  x     0.00057     0.00115     0.00050    -0.56197    -0.00025     0.01386
  y     0.05653     0.01066     0.06142     0.00036     0.01465    -0.00022
  z    -0.01854    -0.00682     0.03433    -0.00008    -0.16282     0.00012

 PIEZOELECTRIC TENSOR (including local field effects)  for field in x, y, z        (C/m^2)
          XX          YY          ZZ          XY          YZ          ZX
  --------------------------------------------------------------------------------
  x     0.00001     0.00001     0.00001    -0.00724    -0.00000     0.00018
  y     0.00073     0.00014     0.00079     0.00000     0.00019    -0.00000
  z    -0.00024    -0.00009     0.00044    -0.00000    -0.00210     0.00000

 BORN EFFECTIVE CHARGES (including local field effects) (in |e|, cummulative output)
 ---------------------------------------------------------------------------------
 ion    1
    1     6.66372     0.00008     0.00027
    2     0.00003     6.66119    -0.00559
    3     0.00013    -0.00244     5.78822
 ion    2
    1     6.66318    -0.00004    -0.00015
    2     0.00005     6.65615     0.00411
    3    -0.00027     0.00014     5.78659
 ion    3
    1     6.65931    -0.00002     0.00025
    2    -0.00010     6.66458     0.00418
    3     0.00017     0.00017     5.78880
 ion    4
    1     6.64937     0.13369     0.00413
    2     0.03429     6.66046    -0.00587
    3     0.00247    -0.01729     5.78477
 ion    5
    1     6.65310    -0.01106     0.00388
    2    -0.00379     6.66266     0.00164
    3    -0.00214    -0.01031     5.78546
 ion    6
    1     6.66169    -0.00895    -0.00270
    2    -0.00277     6.65538     0.00135
    3     0.00208    -0.01048     5.78864
 ion    7
    1     6.65074    -0.13374    -0.00447
    2    -0.03441     6.66067    -0.00625
    3    -0.00263    -0.01773     5.78547
 ion    8
    1     6.65720     0.01109    -0.00383
    2     0.00387     6.66569     0.00166
    3     0.00238    -0.01031     5.78555
 ion    9
    1     6.66309     0.00899     0.00238
    2     0.00287     6.65561     0.00183
    3    -0.00225    -0.01006     5.78931
 ion   10
    1     6.66054     0.00005     0.00012
    2    -0.00007     6.66299     0.00137
    3     0.00028    -0.00075     5.78824
 ion   11
    1     6.66224    -0.00007    -0.00029
    2    -0.00005     6.65734     0.00195
    3    -0.00014    -0.00078     5.78688
 ion   12
    1     6.66111     0.00004    -0.00032
    2     0.00004     6.66120    -0.00137
    3    -0.00018     0.00182     5.78824
 ion   13
    1     6.65923     0.00233     0.00602
    2     0.00056     6.66311    -0.00374
    3     0.00183    -0.00398     5.77736
 ion   14
    1     6.65570     0.00167    -0.00827
    2     0.00036     6.65330    -0.00346
    3    -0.00169    -0.00245     5.79883
 ion   15
    1     6.65936    -0.00340    -0.00039
    2    -0.00061     6.66116    -0.00101
    3     0.00010     0.00503     5.78744
 ion   16
    1     6.66330    -0.00241    -0.00617
    2    -0.00061     6.66616    -0.00372
    3    -0.00211    -0.00398     5.77744
 ion   17
    1     6.65701    -0.00163     0.00860
    2    -0.00036     6.65358    -0.00386
    3     0.00190    -0.00288     5.79954
 ion   18
    1     6.66068     0.00327     0.00063
    2     0.00047     6.66135    -0.00061
    3     0.00008     0.00544     5.78816
 ion   19
    1     6.65476    -0.00037     0.00122
    2    -0.00161     6.65909    -0.00278
    3    -0.00138    -0.00026     5.78504
 ion   20
    1     6.66220     0.00003    -0.00130
    2    -0.00177     6.65782    -0.00356
    3     0.00133    -0.00079     5.79070
 ion   21
    1     6.65975     0.00048    -0.00009
    2     0.00068     6.66075     0.00230
    3    -0.00001     0.00117     5.78763
 ion   22
    1     6.65881     0.00027    -0.00115
    2     0.00154     6.66216    -0.00275
    3     0.00162    -0.00029     5.78513
 ion   23
    1     6.66349    -0.00002     0.00099
    2     0.00179     6.65799    -0.00317
    3    -0.00152    -0.00037     5.79139
 ion   24
    1     6.66108    -0.00054    -0.00016
    2    -0.00078     6.66100     0.00192
    3    -0.00021     0.00073     5.78835
 ion   25
    1     6.65971    -0.00003    -0.00015
    2    -0.00002     6.67199     0.00301
    3    -0.00024     0.00150     5.78131
 ion   26
    1     6.66123    -0.00009     0.00029
    2    -0.00008     6.64702     0.00341
    3     0.00016    -0.00084     5.79697
 ion   27
    1     6.66083     0.00006     0.00030
    2     0.00001     6.66112     0.00319
    3     0.00016     0.00127     5.78839
 ion   28
    1     6.65906    -0.00277    -0.00127
    2    -0.00053     6.66067     0.00700
    3    -0.00064     0.00209     5.78750
 ion   29
    1     6.66015     0.00071     0.00120
    2     0.00258     6.65364    -0.00574
    3     0.00008     0.00035     5.78782
 ion   30
    1     6.65645     0.00051    -0.00097
    2     0.00225     6.66406    -0.00526
    3    -0.00018     0.00091     5.78710
 ion   31
    1     6.66035     0.00270     0.00145
    2     0.00045     6.66091     0.00740
    3     0.00078     0.00250     5.78823
 ion   32
    1     6.66422    -0.00070    -0.00133
    2    -0.00263     6.65667    -0.00576
    3    -0.00038     0.00034     5.78791
 ion   33
    1     6.65778    -0.00044     0.00120
    2    -0.00218     6.66420    -0.00565
    3     0.00037     0.00052     5.78779
 ion   34
    1     6.65372     0.00006    -0.00031
    2     0.00004     6.65853     0.05961
    3    -0.00020     0.09867     5.78044
 ion   35
    1     6.66259    -0.00000     0.00010
    2    -0.00002     6.66250    -0.01066
    3     0.00023     0.00953     5.79030
 ion   36
    1     6.65875    -0.00008    -0.00031
    2    -0.00009     6.65896    -0.00921
    3    -0.00021     0.00970     5.78455
 ion   37
    1    -5.53809    -0.00010     0.00107
    2     0.01184    -1.12301    -0.00657
    3     0.00014    -0.00583    -2.89311
 ion   38
    1    -5.53977    -0.00004    -0.00189
    2    -0.00699    -1.12223     0.00202
    3    -0.00096    -0.00003    -2.89321
 ion   39
    1    -5.53642    -0.00000     0.00170
    2    -0.00619    -1.12347     0.00183
    3     0.00086     0.00000    -2.89388
 ion   40
    1    -5.53710     0.00023    -0.00108
    2    -0.01174    -1.12308    -0.00653
    3    -0.00041    -0.00576    -2.89327
 ion   41
    1    -5.53880    -0.00002     0.00189
    2     0.00693    -1.12235     0.00203
    3     0.00074    -0.00005    -2.89383
 ion   42
    1    -5.53526    -0.00019    -0.00174
    2     0.00613    -1.12349     0.00180
    3    -0.00117    -0.00003    -2.89394
 ion   43
    1    -5.50972     0.00008     0.00010
    2     0.00008    -1.12693    -0.02547
    3     0.00031    -0.02658    -2.88216
 ion   44
    1    -5.53241    -0.00001     0.00008
    2    -0.00003    -1.12253     0.00213
    3     0.00026     0.00004    -2.89562
 ion   45
    1    -5.53910     0.00013     0.00008
    2     0.00005    -1.12361     0.00159
    3     0.00032     0.00031    -2.89198
 ion   46
    1    -1.12365    -0.00009     0.00001
    2    -0.00014    -5.53641     0.00413
    3    -0.00000     0.00231    -2.89380
 ion   47
    1    -1.12333     0.00003     0.00001
    2     0.00005    -5.53588    -0.00228
    3    -0.00005    -0.00111    -2.89401
 ion   48
    1    -1.12364     0.00006    -0.00003
    2     0.00017    -5.53904    -0.00232
    3    -0.00001    -0.00139    -2.89367
 ion   49
    1    -1.12227    -0.00456     0.00070
    2     0.00464    -5.53592     0.00970
    3     0.00024     0.01171    -2.89384
 ion   50
    1    -1.12150     0.00339     0.00185
    2    -0.00102    -5.53467    -0.00686
    3    -0.00036    -0.00571    -2.89216
 ion   51
    1    -1.12279     0.00276    -0.00138
    2    -0.00094    -5.53985    -0.00632
    3     0.00020    -0.00539    -2.89461
 ion   52
    1    -1.12341     0.00469    -0.00066
    2    -0.00447    -5.53616     0.00972
    3    -0.00026     0.01175    -2.89391
 ion   53
    1    -1.12276    -0.00337    -0.00183
    2     0.00098    -5.53491    -0.00686
    3     0.00038    -0.00570    -2.89276
 ion   54
    1    -1.12390    -0.00275     0.00142
    2     0.00080    -5.54003    -0.00646
    3    -0.00023    -0.00546    -2.89464
 ion   55
    1    -1.12417     0.00003    -0.00000
    2     0.00006    -5.54269    -0.00092
    3     0.00002     0.00053    -2.89372
 ion   56
    1    -1.12280     0.00007    -0.00001
    2     0.00011    -5.53206    -0.00169
    3    -0.00001     0.00100    -2.89386
 ion   57
    1    -1.12343    -0.00010     0.00003
    2    -0.00016    -5.53696     0.00105
    3     0.00001    -0.00067    -2.89406
 ion   58
    1    -1.11059     0.01399    -0.00615
    2    -0.01136    -5.53684     0.01106
    3    -0.00006     0.00206    -2.88640
 ion   59
    1    -1.13492     0.01750     0.00744
    2    -0.01289    -5.53580     0.01210
    3    -0.00009     0.00286    -2.90130
 ion   60
    1    -1.12222     0.00549     0.00008
    2     0.00064    -5.53725     0.00132
    3    -0.00003     0.00625    -2.89390
 ion   61
    1    -1.11191    -0.01401     0.00614
    2     0.01134    -5.53713     0.01097
    3     0.00003     0.00207    -2.88697
 ion   62
    1    -1.13602    -0.01755    -0.00749
    2     0.01281    -5.53603     0.01216
    3     0.00008     0.00295    -2.90137
 ion   63
    1    -1.12337    -0.00538    -0.00009
    2    -0.00048    -5.53736     0.00123
    3     0.00002     0.00617    -2.89399
 ion   64
    1    -5.53741     0.00008    -0.00117
    2     0.00183    -1.12220     0.00071
    3     0.00310     0.00013    -2.89270
 ion   65
    1    -5.53865    -0.00009     0.00105
    2     0.00210    -1.12343     0.00063
    3    -0.00401    -0.00018    -2.89519
 ion   66
    1    -5.53796    -0.00004     0.00006
    2    -0.00185    -1.12351    -0.00035
    3     0.00006     0.00000    -2.89404
 ion   67
    1    -5.53646    -0.00008     0.00124
    2    -0.00182    -1.12232     0.00067
    3    -0.00285     0.00011    -2.89334
 ion   68
    1    -5.53764    -0.00011    -0.00100
    2    -0.00218    -1.12346     0.00065
    3     0.00429    -0.00011    -2.89528
 ion   69
    1    -5.53685     0.00017     0.00002
    2     0.00193    -1.12354    -0.00038
    3     0.00028    -0.00002    -2.89411
 ion   70
    1    -5.53878     0.00001    -0.00004
    2     0.00002    -1.12236    -0.00217
    3    -0.00023     0.00008    -2.88980
 ion   71
    1    -5.53261     0.00017    -0.00013
    2     0.00008    -1.12350    -0.00280
    3    -0.00032    -0.00010    -2.89980
 ion   72
    1    -5.53624    -0.00015    -0.00007
    2    -0.00007    -1.12359    -0.00051
    3    -0.00030    -0.00001    -2.89419
 ion   73
    1    -5.53629     0.00001     0.00008
    2     0.00004    -1.12233     0.00036
    3     0.00025     0.00013    -2.89426
 ion   74
    1    -5.53790     0.00018     0.00008
    2     0.00009    -1.12351     0.00041
    3     0.00034     0.00026    -2.89377
 ion   75
    1    -5.53695    -0.00017     0.00009
    2    -0.00008    -1.12356    -0.00040
    3     0.00035    -0.00038    -2.89394
 ion   76
    1    -5.53598    -0.00003    -0.00190
    2    -0.00239    -1.12222     0.00046
    3    -0.00108     0.00008    -2.89147
 ion   77
    1    -5.53930     0.00002     0.00252
    2    -0.00274    -1.12344     0.00051
    3     0.00066     0.00027    -2.89646
 ion   78
    1    -5.53781     0.00000     0.00012
    2     0.00100    -1.12351    -0.00102
    3    -0.00001    -0.00074    -2.89387
 ion   79
    1    -5.53505     0.00004     0.00186
    2     0.00241    -1.12234     0.00047
    3     0.00083     0.00006    -2.89207
 ion   80
    1    -5.53822    -0.00017    -0.00264
    2     0.00268    -1.12349     0.00049
    3    -0.00098     0.00024    -2.89655
 ion   81
    1    -5.53681     0.00016    -0.00022
    2    -0.00090    -1.12356    -0.00100
    3    -0.00028    -0.00068    -2.89398
 ion   82
    1    -1.12115     0.00061    -0.00003
    2    -0.00054    -5.54152     0.00162
    3    -0.00030     0.00030    -2.89223
 ion   83
    1    -1.12325     0.00033     0.00009
    2    -0.00059    -5.53261     0.00212
    3     0.00024     0.00035    -2.89505
 ion   84
    1    -1.12225    -0.00133     0.00001
    2    -0.00013    -5.53683    -0.00103
    3    -0.00001    -0.00034    -2.89388
 ion   85
    1    -1.12240    -0.00063     0.00008
    2     0.00054    -5.54175     0.00156
    3     0.00033     0.00028    -2.89282
 ion   86
    1    -1.12437    -0.00039    -0.00009
    2     0.00047    -5.53285     0.00207
    3    -0.00024     0.00029    -2.89512
 ion   87
    1    -1.12343     0.00144    -0.00002
    2     0.00026    -5.53701    -0.00096
    3     0.00002    -0.00027    -2.89396
 ion   88
    1    -1.12785     0.00003     0.00000
    2     0.00001    -5.54136    -0.00971
    3    -0.00003    -0.00822    -2.89223
 ion   89
    1    -1.11852     0.00007    -0.00003
    2     0.00019    -5.53167    -0.01000
    3    -0.00000    -0.00722    -2.89523
 ion   90
    1    -1.12344    -0.00008     0.00001
    2    -0.00011    -5.53710    -0.00069
    3     0.00001    -0.00640    -2.89389
 ion   91
    1    -1.12236     0.00095     0.00034
    2     0.00050    -5.53627    -0.00282
    3     0.00004     0.00103    -2.89422
 ion   92
    1    -1.12224    -0.00052     0.00012
    2     0.00003    -5.53573     0.00229
    3     0.00000    -0.00074    -2.89404
 ion   93
    1    -1.12231    -0.00037    -0.00010
    2     0.00003    -5.53844     0.00224
    3     0.00001    -0.00039    -2.89355
 ion   94
    1    -1.12351    -0.00085    -0.00027
    2    -0.00035    -5.53649    -0.00294
    3    -0.00004     0.00097    -2.89429
 ion   95
    1    -1.12347     0.00053    -0.00009
    2    -0.00003    -5.53598     0.00229
    3    -0.00004    -0.00074    -2.89461
 ion   96
    1    -1.12344     0.00032     0.00011
    2    -0.00015    -5.53863     0.00230
    3    -0.00001    -0.00029    -2.89363
 ion   97
    1    -1.12278    -0.00006     0.00002
    2    -0.00015    -5.53503    -0.02640
    3     0.00001    -0.00787    -2.89495
 ion   98
    1    -1.12389     0.00001     0.00005
    2    -0.00002    -5.53445     0.00628
    3     0.00004    -0.00069    -2.89348
 ion   99
    1    -1.12292     0.00010     0.00006
    2     0.00016    -5.54006     0.00578
    3     0.00000    -0.00112    -2.89455
 ion  100
    1    -5.53833    -0.00018    -0.00010
    2    -0.00008    -1.12328    -0.00357
    3    -0.00031    -0.00006    -2.89425
 ion  101
    1    -5.53851     0.00003    -0.00002
    2     0.00002    -1.12239     0.00113
    3    -0.00024    -0.00001    -2.89285
 ion  102
    1    -5.53529     0.00011    -0.00005
    2     0.00009    -1.12355     0.00108
    3    -0.00031    -0.00001    -2.89505
 ion  103
    1    -5.53612    -0.00012    -0.00219
    2    -0.00628    -1.12272    -0.00580
    3    -0.00191    -0.00005    -2.89384
 ion  104
    1    -5.54008     0.00001    -0.00220
    2     0.00312    -1.12225     0.00367
    3     0.00014     0.00003    -2.89261
 ion  105
    1    -5.53514    -0.00002     0.00176
    2     0.00274    -1.12348     0.00322
    3    -0.00026    -0.00008    -2.89459
 ion  106
    1    -5.53497     0.00023     0.00238
    2     0.00637    -1.12274    -0.00583
    3     0.00227    -0.00008    -2.89395
 ion  107
    1    -5.53911    -0.00005     0.00227
    2    -0.00310    -1.12236     0.00369
    3     0.00016     0.00003    -2.89322
 ion  108
    1    -5.53413    -0.00011    -0.00171
    2    -0.00281    -1.12355     0.00319
    3     0.00058    -0.00004    -2.89465


--------------------------------------------------------------------------------------------------------


     LOOP+:  cpu time   2347.1033: real time   2386.9173
    4ORBIT:  cpu time      0.0000: real time      0.0000

 total amount of memory used by VASP MPI-rank0   266725. kBytes
=======================================================================

   base      :      30000. kBytes
   nonlr-proj:      19556. kBytes
   fftplans  :      10927. kBytes
   grid      :      23181. kBytes
   one-center:       1679. kBytes
   wavefun   :     181382. kBytes



 General timing and accounting informations for this job:
 ========================================================

                  Total CPU time used (sec):     2358.520
                            User time (sec):     2287.581
                          System time (sec):       70.940
                         Elapsed time (sec):     2407.059

                   Maximum memory used (kb):     1092520.
                   Average memory used (kb):          N/A

                          Minor page faults:      1891632
                          Major page faults:           17
                 Voluntary context switches:       108470
