 vasp.6.3.0 20Jan22 (build Mar 29 2022 16:24:06) complex

 executed on             Bridges2 date 2023.01.12  19:12:39
 running on   32 total cores
 distrk:  each k-point on    4 cores,    8 groups
 distr:  one band on NCORE=   1 cores,    4 groups


--------------------------------------------------------------------------------------------------------


 INCAR:
   ICHARG = 2
   LWAVE = .FALSE.
   LCHARG = .FALSE.
   LVTOT = .FALSE.
   NCORE = 1
   KPAR = 8
   EDIFF = 1E-7
   NELM = 80
   PREC = Normal
   LREAL = Auto
   NELMIN = 4
   ENCUT = 400.0 eV
   ISPIN = 1
   ISMEAR = 0
   SIGMA = 0.10
   NSW = 0
   LEPSILON = .TRUE.
   LPEAD = .TRUE.
   ISYM = 0

 POTCAR:    PAW_PBE Ti_pv 07Sep2000
 POTCAR:    PAW_PBE O 08Apr2002
 -----------------------------------------------------------------------------
|                                                                             |
|           W    W    AA    RRRRR   N    N  II  N    N   GGGG   !!!           |
|           W    W   A  A   R    R  NN   N  II  NN   N  G    G  !!!           |
|           W    W  A    A  R    R  N N  N  II  N N  N  G       !!!           |
|           W WW W  AAAAAA  RRRRR   N  N N  II  N  N N  G  GGG   !            |
|           WW  WW  A    A  R   R   N   NN  II  N   NN  G    G                |
|           W    W  A    A  R    R  N    N  II  N    N   GGGG   !!!           |
|                                                                             |
|     For optimal performance we recommend to set                             |
|       NCORE = 2 up to number-of-cores-per-socket                            |
|     NCORE specifies how many cores store one orbital (NPAR=cpu/NCORE).      |
|     This setting can greatly improve the performance of VASP for DFT.       |
|     The default, NCORE=1 might be grossly inefficient on modern             |
|     multi-core architectures or massively parallel machines. Do your        |
|     own testing! More info at https://www.vasp.at/wiki/index.php/NCORE      |
|     Unfortunately you need to use the default for GW and RPA                |
|     calculations (for HF NCORE is supported but not extensively tested      |
|     yet).                                                                   |
|                                                                             |
 -----------------------------------------------------------------------------

 POTCAR:    PAW_PBE Ti_pv 07Sep2000
   VRHFIN =Ti: d3 s1
   LEXCH  = PE
   EATOM  =  1042.5995 eV,   76.6289 Ry

   TITEL  = PAW_PBE Ti_pv 07Sep2000
   LULTRA =        F    use ultrasoft PP ?
   IUNSCR =        1    unscreen: 0-lin 1-nonlin 2-no
   RPACOR =    2.200    partial core radius
   POMASS =   47.880; ZVAL   =   10.000    mass and valenz
   RCORE  =    2.500    outmost cutoff radius
   RWIGS  =    2.500; RWIGS  =    1.323    wigner-seitz radius (au A)
   ENMAX  =  222.335; ENMIN  =  166.751 eV
   RCLOC  =    1.701    cutoff for local pot
   LCOR   =        T    correct aug charges
   LPAW   =        T    paw PP
   EAUG   =  482.848
   DEXC   =    0.000
   RMAX   =    2.564    core radius for proj-oper
   RAUG   =    1.300    factor for augmentation sphere
   RDEP   =    2.538    radius for radial grids
   RDEPT  =    1.952    core radius for aug-charge

   Atomic configuration
    8 entries
     n  l   j            E        occ.
     1  0  0.50     -4865.3608   2.0000
     2  0  0.50      -533.1368   2.0000
     2  1  1.50      -440.5031   6.0000
     3  0  0.50       -59.3186   2.0000
     3  1  1.50       -35.7012   6.0000
     3  2  2.50        -1.9157   3.0000
     4  0  0.50        -3.7291   1.0000
     4  3  2.50        -1.3606   0.0000
   Description
     l       E           TYP  RCUT    TYP  RCUT
     1    -35.7012140     23  2.300
     1     -1.3605826     23  2.300
     2     -1.9156996     23  2.500
     2     -0.4063033     23  2.500
     0     -3.7290856     23  2.500
     0     20.4087390     23  2.500
  local pseudopotential read in
  partial core-charges read in
  partial kinetic energy density read in
  atomic valenz-charges read in
  non local Contribution for L=           1  read in
    real space projection operators read in
  non local Contribution for L=           1  read in
    real space projection operators read in
  non local Contribution for L=           2  read in
    real space projection operators read in
  non local Contribution for L=           2  read in
    real space projection operators read in
  non local Contribution for L=           0  read in
    real space projection operators read in
  non local Contribution for L=           0  read in
    real space projection operators read in
    PAW grid and wavefunctions read in

   number of l-projection  operators is LMAX  =           6
   number of lm-projection operators is LMMAX =          18

 POTCAR:    PAW_PBE O 08Apr2002
   VRHFIN =O: s2p4
   LEXCH  = PE
   EATOM  =   432.3788 eV,   31.7789 Ry

   TITEL  = PAW_PBE O 08Apr2002
   LULTRA =        F    use ultrasoft PP ?
   IUNSCR =        1    unscreen: 0-lin 1-nonlin 2-no
   RPACOR =    1.200    partial core radius
   POMASS =   16.000; ZVAL   =    6.000    mass and valenz
   RCORE  =    1.520    outmost cutoff radius
   RWIGS  =    1.550; RWIGS  =    0.820    wigner-seitz radius (au A)
   ENMAX  =  400.000; ENMIN  =  300.000 eV
   ICORE  =        2    local potential
   LCOR   =        T    correct aug charges
   LPAW   =        T    paw PP
   EAUG   =  605.392
   DEXC   =    0.000
   RMAX   =    1.553    core radius for proj-oper
   RAUG   =    1.300    factor for augmentation sphere
   RDEP   =    1.550    radius for radial grids
   RDEPT  =    1.329    core radius for aug-charge

   Atomic configuration
    4 entries
     n  l   j            E        occ.
     1  0  0.50      -514.6923   2.0000
     2  0  0.50       -23.9615   2.0000
     2  1  0.50        -9.0305   4.0000
     3  2  1.50        -9.5241   0.0000
   Description
     l       E           TYP  RCUT    TYP  RCUT
     0    -23.9615318     23  1.200
     0     -9.5240782     23  1.200
     1     -9.0304911     23  1.520
     1      8.1634956     23  1.520
     2     -9.5240782      7  1.500
  local pseudopotential read in
  partial core-charges read in
  partial kinetic energy density read in
  kinetic energy density of atom read in
  atomic valenz-charges read in
  non local Contribution for L=           0  read in
    real space projection operators read in
  non local Contribution for L=           0  read in
    real space projection operators read in
  non local Contribution for L=           1  read in
    real space projection operators read in
  non local Contribution for L=           1  read in
    real space projection operators read in
    PAW grid and wavefunctions read in

   number of l-projection  operators is LMAX  =           4
   number of lm-projection operators is LMMAX =           8

 Optimization of the real space projectors (new method)

 maximal supplied QI-value         = 15.12
 optimisation between [QCUT,QGAM] = [ 10.13, 20.41] = [ 28.73,116.64] Ry
 Optimized for a Real-space Cutoff    1.51 Angstroem

   l    n(q)    QCUT    max X(q) W(low)/X(q) W(high)/X(q)  e(spline)
   1      9    10.129     4.216    0.12E-04    0.72E-04    0.60E-07
   1      9    10.129     5.422    0.84E-04    0.21E-03    0.15E-06
   2      8    10.129    72.084    0.33E-03    0.35E-04    0.17E-06
   2      8    10.129    65.965    0.33E-03    0.37E-04    0.17E-06
   0      9    10.129    41.531    0.17E-03    0.19E-03    0.81E-07
   0      9    10.129    16.290    0.12E-03    0.14E-03    0.64E-07
 Optimization of the real space projectors (new method)

 maximal supplied QI-value         = 24.76
 optimisation between [QCUT,QGAM] = [ 10.15, 20.30] = [ 28.85,115.39] Ry
 Optimized for a Real-space Cutoff    1.38 Angstroem

   l    n(q)    QCUT    max X(q) W(low)/X(q) W(high)/X(q)  e(spline)
   0      8    10.150    20.381    0.22E-03    0.32E-03    0.29E-06
   0      8    10.150    15.268    0.23E-03    0.35E-03    0.30E-06
   1      8    10.150     5.964    0.46E-03    0.53E-03    0.21E-06
   1      8    10.150     5.382    0.38E-03    0.45E-03    0.19E-06
  PAW_PBE Ti_pv 07Sep2000               :
 energy of atom  1       EATOM=-1042.5995
 kinetic energy error for atom=    0.0037 (will be added to EATOM!!)
  PAW_PBE O 08Apr2002                   :
 energy of atom  2       EATOM= -432.3788
 kinetic energy error for atom=    0.1156 (will be added to EATOM!!)


 POSCAR: Ti4 O8
  positions in cartesian coordinates
  No initial velocities read in
 exchange correlation table for  LEXCH =        8
   RHO(1)=    0.500       N(1)  =     2000
   RHO(2)=  100.500       N(2)  =     4000



--------------------------------------------------------------------------------------------------------


 ion  position               nearest neighbor table
   1  0.167  0.167  0.500-  56 1.94  55 1.94  40 1.94  37 1.94 100 2.00  46 2.00  31 3.06  28 3.06
                            11 3.06  10 3.06
   2  0.167  0.500  0.500-  56 1.94  41 1.94  38 1.94  57 1.94 101 2.00  47 2.00  11 3.06  32 3.06
                            29 3.06  12 3.06
   3  0.167  0.833  0.500-  57 1.94  42 1.94  39 1.94  55 1.94 102 2.00  48 2.00  12 3.06  33 3.06
                            30 3.06  10 3.06
   4  0.500  0.167  0.500-  43 1.91  40 1.94  59 1.94  58 1.94 103 2.00  49 2.00  31 3.06  14 3.06
                            13 3.06  34 3.06
   5  0.500  0.500  0.500-  59 1.94  41 1.94  60 1.94  44 1.94 104 2.00  50 2.00  32 3.06  14 3.06
                            35 3.06  15 3.06
   6  0.500  0.833  0.500-  60 1.94  42 1.94  58 1.94  45 1.94 105 2.00  51 2.00  15 3.06  33 3.06
                            13 3.06  36 3.06
   7  0.833  0.167  0.500-  43 1.91  62 1.94  61 1.94  37 1.94 106 2.00  52 2.00  34 3.06  17 3.06
                            16 3.06  28 3.06
   8  0.833  0.500  0.500-  44 1.94  62 1.94  63 1.94  38 1.94 107 2.00  53 2.00  35 3.06  17 3.06
                            29 3.06  18 3.06
   9  0.833  0.833  0.500-  63 1.94  45 1.94  61 1.94  39 1.94 108 2.00  54 2.00  36 3.06  18 3.06
                            30 3.06  16 3.06
  10  0.167  0.000  0.750-  67 1.94  64 1.94  46 1.94  48 1.94  73 2.00  55 2.00  22 3.06  19 3.06
                             1 3.06   3 3.06
  11  0.167  0.333  0.750-  47 1.94  46 1.94  68 1.94  65 1.94  74 2.00  56 2.00   2 3.06  23 3.06
                            20 3.06   1 3.06
  12  0.167  0.667  0.750-  48 1.94  69 1.94  66 1.94  47 1.94  75 2.00  57 2.00   3 3.06  24 3.06
                            21 3.06   2 3.06
  13  0.500  0.000  0.750-  67 1.94  49 1.94  51 1.94  70 1.94  76 2.00  58 2.00  22 3.06   4 3.06
                            25 3.06   6 3.06
  14  0.500  0.333  0.750-  50 1.94  68 1.94  49 1.94  71 1.94  77 2.00  59 2.00  23 3.06   5 3.06
                             4 3.06  26 3.06
  15  0.500  0.667  0.750-  51 1.94  69 1.94  50 1.94  72 1.94  78 2.00  60 2.00   6 3.06  24 3.06
                            27 3.06   5 3.06
  16  0.833  0.000  0.750-  70 1.94  52 1.94  64 1.94  54 1.94  79 2.00  61 2.00  25 3.06   7 3.06
                            19 3.06   9 3.06
  17  0.833  0.333  0.750-  71 1.94  53 1.94  52 1.94  65 1.94  80 2.00  62 2.00  26 3.06   8 3.06
                             7 3.06  20 3.06
  18  0.833  0.667  0.750-  54 1.94  72 1.94  66 1.94  53 1.94  81 2.00  63 2.00  27 3.06   9 3.06
                            21 3.06   8 3.06
  19  0.000  0.000  0.000-  73 1.94  91 1.94  79 1.94  93 1.94  82 2.00  64 2.00  10 3.06  28 3.06
                            16 3.06  30 3.06
  20  0.000  0.333  0.000-  92 1.94  74 1.94  91 1.94  80 1.94  83 2.00  65 2.00  29 3.06  11 3.06
                            28 3.06  17 3.06
  21  0.000  0.667  0.000-  93 1.94  75 1.94  81 1.94  92 1.94  84 2.00  66 2.00  30 3.06  12 3.06
                            18 3.06  29 3.06
  22  0.333  0.000  0.000-  76 1.94  73 1.94  94 1.94  96 1.94  85 2.00  67 2.00  13 3.06  10 3.06
                            31 3.06  33 3.06
  23  0.333  0.333  0.000-  77 1.94  95 1.94  74 1.94  94 1.94  86 2.00  68 2.00  14 3.06  32 3.06
                            11 3.06  31 3.06
  24  0.333  0.667  0.000-  96 1.94  78 1.94  75 1.94  95 1.94  87 2.00  69 2.00  33 3.06  15 3.06
                            12 3.06  32 3.06
  25  0.667  0.000  0.000-  79 1.94  97 1.94  76 1.94  99 1.94  88 2.00  70 2.00  16 3.06  34 3.06
                            13 3.06  36 3.06
  26  0.667  0.333  0.000-  80 1.94  98 1.94  97 1.94  77 1.94  89 2.00  71 2.00  17 3.06  35 3.06
                            34 3.06  14 3.06
  27  0.667  0.667  0.000-  81 1.94  99 1.94  78 1.94  98 1.94  90 2.00  72 2.00  18 3.06  36 3.06
                            15 3.06  35 3.06
  28  0.000  0.167  0.250-  83 1.94  82 1.94 100 1.94 106 1.94  37 2.00  91 2.00   1 3.06  20 3.06
                            19 3.06   7 3.06
  29  0.000  0.500  0.250-  83 1.94 101 1.94  84 1.94 107 1.94  38 2.00  92 2.00  20 3.06   2 3.06
                             8 3.06  21 3.06
  30  0.000  0.833  0.250-  84 1.94 102 1.94  82 1.94 108 1.94  39 2.00  93 2.00  21 3.06   3 3.06
                             9 3.06  19 3.06
  31  0.333  0.167  0.250- 103 1.94  86 1.94  85 1.94 100 1.94  40 2.00  94 2.00   4 3.06   1 3.06
                            23 3.06  22 3.06
  32  0.333  0.500  0.250-  86 1.94 104 1.94 101 1.94  87 1.94  41 2.00  95 2.00   5 3.06  23 3.06
                             2 3.06  24 3.06
  33  0.333  0.833  0.250-  87 1.94 105 1.94 102 1.94  85 1.94  42 2.00  96 2.00  24 3.06   6 3.06
                             3 3.06  22 3.06
  34  0.667  0.167  0.250- 106 1.94  89 1.94  88 1.94 103 1.94  97 2.00  43 2.20   7 3.06  26 3.06
                            25 3.06   4 3.06
  35  0.667  0.500  0.250- 107 1.94  89 1.94  90 1.94 104 1.94  44 2.00  98 2.00   8 3.06  26 3.06
                             5 3.06  27 3.06
  36  0.667  0.833  0.250-  90 1.94 108 1.94  88 1.94 105 1.94  45 2.00  99 2.00   9 3.06  27 3.06
                            25 3.06   6 3.06
  37  0.000  0.167  0.458-   1 1.94   7 1.94  28 2.00
  38  0.000  0.500  0.458-   2 1.94   8 1.94  29 2.00
  39  0.000  0.833  0.458-   3 1.94   9 1.94  30 2.00
  40  0.333  0.167  0.458-   4 1.94   1 1.94  31 2.00
  41  0.333  0.500  0.458-   5 1.94   2 1.94  32 2.00
  42  0.333  0.833  0.458-   6 1.94   3 1.94  33 2.00
  43  0.667  0.167  0.479-   7 1.91   4 1.91  34 2.20
  44  0.667  0.500  0.458-   8 1.94   5 1.94  35 2.00
  45  0.667  0.833  0.458-   9 1.94   6 1.94  36 2.00
  46  0.167  0.167  0.708-  11 1.94  10 1.94   1 2.00
  47  0.167  0.500  0.708-  11 1.94  12 1.94   2 2.00
  48  0.167  0.833  0.708-  12 1.94  10 1.94   3 2.00
  49  0.500  0.167  0.708-  14 1.94  13 1.94   4 2.00
  50  0.500  0.500  0.708-  14 1.94  15 1.94   5 2.00
  51  0.500  0.833  0.708-  15 1.94  13 1.94   6 2.00
  52  0.833  0.167  0.708-  17 1.94  16 1.94   7 2.00
  53  0.833  0.500  0.708-  17 1.94  18 1.94   8 2.00
  54  0.833  0.833  0.708-  18 1.94  16 1.94   9 2.00
  55  0.167  0.000  0.542-   1 1.94   3 1.94  10 2.00
  56  0.167  0.333  0.542-   2 1.94   1 1.94  11 2.00
  57  0.167  0.667  0.542-   3 1.94   2 1.94  12 2.00
  58  0.500  0.000  0.542-   4 1.94   6 1.94  13 2.00
  59  0.500  0.333  0.542-   5 1.94   4 1.94  14 2.00
  60  0.500  0.667  0.542-   6 1.94   5 1.94  15 2.00
  61  0.833  0.000  0.542-   7 1.94   9 1.94  16 2.00
  62  0.833  0.333  0.542-   8 1.94   7 1.94  17 2.00
  63  0.833  0.667  0.542-   9 1.94   8 1.94  18 2.00
  64  0.000  0.000  0.792-  10 1.94  16 1.94  19 2.00
  65  0.000  0.333  0.792-  11 1.94  17 1.94  20 2.00
  66  0.000  0.667  0.792-  12 1.94  18 1.94  21 2.00
  67  0.333  0.000  0.792-  13 1.94  10 1.94  22 2.00
  68  0.333  0.333  0.792-  14 1.94  11 1.94  23 2.00
  69  0.333  0.667  0.792-  15 1.94  12 1.94  24 2.00
  70  0.667  0.000  0.792-  16 1.94  13 1.94  25 2.00
  71  0.667  0.333  0.792-  17 1.94  14 1.94  26 2.00
  72  0.667  0.667  0.792-  18 1.94  15 1.94  27 2.00
  73  0.167  0.000  0.958-  22 1.94  19 1.94  10 2.00
  74  0.167  0.333  0.958-  23 1.94  20 1.94  11 2.00
  75  0.167  0.667  0.958-  24 1.94  21 1.94  12 2.00
  76  0.500  0.000  0.958-  22 1.94  25 1.94  13 2.00
  77  0.500  0.333  0.958-  23 1.94  26 1.94  14 2.00
  78  0.500  0.667  0.958-  24 1.94  27 1.94  15 2.00
  79  0.833  0.000  0.958-  25 1.94  19 1.94  16 2.00
  80  0.833  0.333  0.958-  26 1.94  20 1.94  17 2.00
  81  0.833  0.667  0.958-  27 1.94  21 1.94  18 2.00
  82  0.000  0.000  0.208-  28 1.94  30 1.94  19 2.00
  83  0.000  0.333  0.208-  29 1.94  28 1.94  20 2.00
  84  0.000  0.667  0.208-  30 1.94  29 1.94  21 2.00
  85  0.333  0.000  0.208-  31 1.94  33 1.94  22 2.00
  86  0.333  0.333  0.208-  32 1.94  31 1.94  23 2.00
  87  0.333  0.667  0.208-  33 1.94  32 1.94  24 2.00
  88  0.667  0.000  0.208-  34 1.94  36 1.94  25 2.00
  89  0.667  0.333  0.208-  35 1.94  34 1.94  26 2.00
  90  0.667  0.667  0.208-  36 1.94  35 1.94  27 2.00
  91  0.000  0.167  0.042-  20 1.94  19 1.94  28 2.00
  92  0.000  0.500  0.042-  20 1.94  21 1.94  29 2.00
  93  0.000  0.833  0.042-  21 1.94  19 1.94  30 2.00
  94  0.333  0.167  0.042-  23 1.94  22 1.94  31 2.00
  95  0.333  0.500  0.042-  23 1.94  24 1.94  32 2.00
  96  0.333  0.833  0.042-  24 1.94  22 1.94  33 2.00
  97  0.667  0.167  0.042-  26 1.94  25 1.94  34 2.00
  98  0.667  0.500  0.042-  26 1.94  27 1.94  35 2.00
  99  0.667  0.833  0.042-  27 1.94  25 1.94  36 2.00
 100  0.167  0.167  0.292-  31 1.94  28 1.94   1 2.00
 101  0.167  0.500  0.292-  32 1.94  29 1.94   2 2.00
 102  0.167  0.833  0.292-  33 1.94  30 1.94   3 2.00
 103  0.500  0.167  0.292-  31 1.94  34 1.94   4 2.00
 104  0.500  0.500  0.292-  32 1.94  35 1.94   5 2.00
 105  0.500  0.833  0.292-  33 1.94  36 1.94   6 2.00
 106  0.833  0.167  0.292-  34 1.94  28 1.94   7 2.00
 107  0.833  0.500  0.292-  35 1.94  29 1.94   8 2.00
 108  0.833  0.833  0.292-  36 1.94  30 1.94   9 2.00


IMPORTANT INFORMATION: All symmetrisations will be switched off!
NOSYMM: (Re-)initialisation of all symmetry stuff for point group C_1.


----------------------------------------------------------------------------------------

                                     Primitive cell

  volume of cell :    1243.1447

  direct lattice vectors                    reciprocal lattice vectors
    11.376843452  0.000000000  0.000000000     0.087897843  0.000000000  0.000000000
     0.000000000 11.376843452  0.000000000     0.000000000  0.087897843  0.000000000
     0.000000000  0.000000000  9.604574204     0.000000000  0.000000000  0.104117057

  length of vectors
    11.376843452 11.376843452  9.604574204     0.087897843  0.087897843  0.104117057

  position of ions in fractional coordinates (direct lattice)
     0.166666672  0.166666672  0.500000000
     0.166666672  0.500000000  0.500000000
     0.166666672  0.833333313  0.500000000
     0.500000000  0.166666672  0.500000000
     0.500000000  0.500000000  0.500000000
     0.500000000  0.833333313  0.500000000
     0.833333313  0.166666672  0.500000000
     0.833333313  0.500000000  0.500000000
     0.833333313  0.833333313  0.500000000
     0.166666672  0.000000000  0.750000000
     0.166666672  0.333333343  0.750000000
     0.166666672  0.666666687  0.750000000
     0.500000000  0.000000000  0.750000000
     0.500000000  0.333333343  0.750000000
     0.500000000  0.666666687  0.750000000
     0.833333313  0.000000000  0.750000000
     0.833333313  0.333333343  0.750000000
     0.833333313  0.666666687  0.750000000
     0.000000000  0.000000000  0.000000000
     0.000000000  0.333333343  0.000000000
     0.000000000  0.666666687  0.000000000
     0.333333343  0.000000000  0.000000000
     0.333333343  0.333333343  0.000000000
     0.333333343  0.666666687  0.000000000
     0.666666687  0.000000000  0.000000000
     0.666666687  0.333333343  0.000000000
     0.666666687  0.666666687  0.000000000
     0.000000000  0.166666672  0.250000000
     0.000000000  0.500000000  0.250000000
     0.000000000  0.833333313  0.250000000
     0.333333343  0.166666672  0.250000000
     0.333333343  0.500000000  0.250000000
     0.333333343  0.833333313  0.250000000
     0.666666687  0.166666672  0.250000000
     0.666666687  0.500000000  0.250000000
     0.666666687  0.833333313  0.250000000
     0.000000000  0.166666672  0.457898587
     0.000000000  0.500000000  0.457898587
     0.000000000  0.833333313  0.457898587
     0.333333343  0.166666672  0.457898587
     0.333333343  0.500000000  0.457898587
     0.333333343  0.833333313  0.457898587
     0.666666687  0.166666672  0.478721998
     0.666666687  0.500000000  0.457898587
     0.666666687  0.833333313  0.457898587
     0.166666672  0.166666672  0.707898617
     0.166666672  0.500000000  0.707898617
     0.166666672  0.833333313  0.707898617
     0.500000000  0.166666672  0.707898617
     0.500000000  0.500000000  0.707898617
     0.500000000  0.833333313  0.707898617
     0.833333313  0.166666672  0.707898617
     0.833333313  0.500000000  0.707898617
     0.833333313  0.833333313  0.707898617
     0.166666672  0.000000000  0.542101383
     0.166666672  0.333333343  0.542101383
     0.166666672  0.666666687  0.542101383
     0.500000000  0.000000000  0.542101383
     0.500000000  0.333333343  0.542101383
     0.500000000  0.666666687  0.542101383
     0.833333313  0.000000000  0.542101383
     0.833333313  0.333333343  0.542101383
     0.833333313  0.666666687  0.542101383
     0.000000000  0.000000000  0.792101383
     0.000000000  0.333333343  0.792101383
     0.000000000  0.666666687  0.792101383
     0.333333343  0.000000000  0.792101383
     0.333333343  0.333333343  0.792101383
     0.333333343  0.666666687  0.792101383
     0.666666687  0.000000000  0.792101383
     0.666666687  0.333333343  0.792101383
     0.666666687  0.666666687  0.792101383
     0.166666672  0.000000000  0.957898617
     0.166666672  0.333333343  0.957898617
     0.166666672  0.666666687  0.957898617
     0.500000000  0.000000000  0.957898617
     0.500000000  0.333333343  0.957898617
     0.500000000  0.666666687  0.957898617
     0.833333313  0.000000000  0.957898617
     0.833333313  0.333333343  0.957898617
     0.833333313  0.666666687  0.957898617
     0.000000000  0.000000000  0.207898602
     0.000000000  0.333333343  0.207898602
     0.000000000  0.666666687  0.207898602
     0.333333343  0.000000000  0.207898602
     0.333333343  0.333333343  0.207898602
     0.333333343  0.666666687  0.207898602
     0.666666687  0.000000000  0.207898602
     0.666666687  0.333333343  0.207898602
     0.666666687  0.666666687  0.207898602
     0.000000000  0.166666672  0.042101406
     0.000000000  0.500000000  0.042101406
     0.000000000  0.833333313  0.042101406
     0.333333343  0.166666672  0.042101406
     0.333333343  0.500000000  0.042101406
     0.333333343  0.833333313  0.042101406
     0.666666687  0.166666672  0.042101406
     0.666666687  0.500000000  0.042101406
     0.666666687  0.833333313  0.042101406
     0.166666672  0.166666672  0.292101413
     0.166666672  0.500000000  0.292101413
     0.166666672  0.833333313  0.292101413
     0.500000000  0.166666672  0.292101413
     0.500000000  0.500000000  0.292101413
     0.500000000  0.833333313  0.292101413
     0.833333313  0.166666672  0.292101413
     0.833333313  0.500000000  0.292101413
     0.833333313  0.833333313  0.292101413

  ion indices of the primitive-cell ions
   primitive index   ion index
                 1           1
                 2           2
                 3           3
                 4           4
                 5           5
                 6           6
                 7           7
                 8           8
                 9           9
                10          10
                11          11
                12          12
                13          13
                14          14
                15          15
                16          16
                17          17
                18          18
                19          19
                20          20
                21          21
                22          22
                23          23
                24          24
                25          25
                26          26
                27          27
                28          28
                29          29
                30          30
                31          31
                32          32
                33          33
                34          34
                35          35
                36          36
                37          37
                38          38
                39          39
                40          40
                41          41
                42          42
                43          43
                44          44
                45          45
                46          46
                47          47
                48          48
                49          49
                50          50
                51          51
                52          52
                53          53
                54          54
                55          55
                56          56
                57          57
                58          58
                59          59
                60          60
                61          61
                62          62
                63          63
                64          64
                65          65
                66          66
                67          67
                68          68
                69          69
                70          70
                71          71
                72          72
                73          73
                74          74
                75          75
                76          76
                77          77
                78          78
                79          79
                80          80
                81          81
                82          82
                83          83
                84          84
                85          85
                86          86
                87          87
                88          88
                89          89
                90          90
                91          91
                92          92
                93          93
                94          94
                95          95
                96          96
                97          97
                98          98
                99          99
               100         100
               101         101
               102         102
               103         103
               104         104
               105         105
               106         106
               107         107
               108         108

----------------------------------------------------------------------------------------



 KPOINTS: K-Points

Automatic generation of k-mesh.
 Grid dimensions read from file:
 generate k-points for:    2    2    2

 Generating k-lattice:

  Cartesian coordinates                     Fractional coordinates (reciprocal lattice)
     0.043948922  0.000000000  0.000000000     0.500000000  0.000000000  0.000000000
     0.000000000  0.043948922  0.000000000     0.000000000  0.500000000  0.000000000
     0.000000000  0.000000000  0.052058529     0.000000000  0.000000000  0.500000000

  Length of vectors
     0.043948922  0.043948922  0.052058529

  Shift w.r.t. Gamma in fractional coordinates (k-lattice)
     0.500000000  0.500000000  0.500000000


 Subroutine IBZKPT returns following result:
 ===========================================

 Found      4 irreducible k-points:

 Following reciprocal coordinates:
            Coordinates               Weight
  0.250000  0.250000  0.250000      2.000000
 -0.250000  0.250000  0.250000      2.000000
 -0.250000 -0.250000  0.250000      2.000000
  0.250000 -0.250000  0.250000      2.000000

 Following cartesian coordinates:
            Coordinates               Weight
  0.021974  0.021974  0.026029      2.000000
 -0.021974  0.021974  0.026029      2.000000
 -0.021974 -0.021974  0.026029      2.000000
  0.021974 -0.021974  0.026029      2.000000


 Subroutine IBZKPT_HF returns following result:
 ==============================================

 Found      8 k-points in 1st BZ
 the following      8 k-points will be used (e.g. in the exchange kernel)
 Following reciprocal coordinates:   # in IRBZ
  0.250000  0.250000  0.250000    0.12500000   1 t-inv F
 -0.250000  0.250000  0.250000    0.12500000   2 t-inv F
 -0.250000 -0.250000  0.250000    0.12500000   3 t-inv F
  0.250000 -0.250000  0.250000    0.12500000   4 t-inv F
 -0.250000 -0.250000 -0.250000    0.12500000   1 t-inv T
  0.250000 -0.250000 -0.250000    0.12500000   2 t-inv T
  0.250000  0.250000 -0.250000    0.12500000   3 t-inv T
 -0.250000  0.250000 -0.250000    0.12500000   4 t-inv T


--------------------------------------------------------------------------------------------------------




 Dimension of arrays:
   k-points           NKPTS =      4   k-points in BZ     NKDIM =      4   number of bands    NBANDS=    476
   number of dos      NEDOS =    301   number of ions     NIONS =    108
   non local maximal  LDIM  =      6   non local SUM 2l+1 LMDIM =     18
   total plane-waves  NPLWV = 150528
   max r-space proj   IRMAX =   1791   max aug-charges    IRDMAX=   4900
   dimension x,y,z NGX =    56 NGY =   56 NGZ =   48
   dimension x,y,z NGXF=   112 NGYF=  112 NGZF=   96
   support grid    NGXF=   112 NGYF=  112 NGZF=   96
   ions per type =              36  72
   NGX,Y,Z   is equivalent  to a cutoff of   8.18,  8.18,  8.31 a.u.
   NGXF,Y,Z  is equivalent  to a cutoff of  16.37, 16.37, 16.62 a.u.

 SYSTEM =  unknown system
 POSCAR =  Ti4 O8

 Startparameter for this run:
   NWRITE =      2    write-flag & timer
   PREC   = normal    normal or accurate (medium, high low for compatibility)
   ISTART =      0    job   : 0-new  1-cont  2-samecut
   ICHARG =      2    charge: 1-file 2-atom 10-const
   ISPIN  =      1    spin polarized calculation?
   LNONCOLLINEAR =      F non collinear calculations
   LSORBIT =      F    spin-orbit coupling
   INIWAV =      1    electr: 0-lowe 1-rand  2-diag
   LASPH  =      F    aspherical Exc in radial PAW
 Electronic Relaxation 1
   ENCUT  =  400.0 eV  29.40 Ry    5.42 a.u.  18.55 18.55 15.66*2*pi/ulx,y,z
   ENINI  =  400.0     initial cutoff
   ENAUG  =  605.4 eV  augmentation charge cutoff
   NELM   =     80;   NELMIN=  4; NELMDL= -5     # of ELM steps
   EDIFF  = 0.1E-06   stopping-criterion for ELM
   LREAL  =      T    real-space projection
   NLSPLINE    = F    spline interpolate recip. space projectors
   LCOMPAT=      F    compatible to vasp.4.4
   GGA_COMPAT  = T    GGA compatible to vasp.4.4-vasp.4.6
   LMAXPAW     = -100 max onsite density
   LMAXMIX     =    2 max onsite mixed and CHGCAR
   VOSKOWN=      0    Vosko Wilk Nusair interpolation
   ROPT   =   -0.00050  -0.00050
 Ionic relaxation
   EDIFFG = 0.1E-05   stopping-criterion for IOM
   NSW    =      0    number of steps for IOM
   NBLOCK =      1;   KBLOCK =      1    inner block; outer block
   IBRION =     -1    ionic relax: 0-MD 1-quasi-New 2-CG
   NFREE  =      0    steps in history (QN), initial steepest desc. (CG)
   ISIF   =      2    stress and relaxation
   IWAVPR =     10    prediction:  0-non 1-charg 2-wave 3-comb
   ISYM   =      0    0-nonsym 1-usesym 2-fastsym
   LCORR  =      T    Harris-Foulkes like correction to forces

   POTIM  = 0.5000    time-step for ionic-motion
   TEIN   =    0.0    initial temperature
   TEBEG  =    0.0;   TEEND  =   0.0 temperature during run
   SMASS  =  -3.00    Nose mass-parameter (am)
   estimated Nose-frequenzy (Omega)   =  0.10E-29 period in steps = 0.13E+47 mass=  -0.296E-26a.u.
   SCALEE = 1.0000    scale energy and forces
   NPACO  =    256;   APACO  = 10.0  distance and # of slots for P.C.
   PSTRESS=    0.0 pullay stress

  Mass of Ions in am
   POMASS =  47.88 16.00
  Ionic Valenz
   ZVAL   =  10.00  6.00
  Atomic Wigner-Seitz radii
   RWIGS  =  -1.00 -1.00
  virtual crystal weights
   VCA    =   1.00  1.00
   NELECT =     792.0000    total number of electrons
   NUPDOWN=      -1.0000    fix difference up-down

 DOS related values:
   EMIN   =  10.00;   EMAX   =-10.00  energy-range for DOS
   EFERMI =   0.00
   ISMEAR =     0;   SIGMA  =   0.10  broadening in eV -4-tet -1-fermi 0-gaus

 Electronic relaxation 2 (details)
   IALGO  =     38    algorithm
   LDIAG  =      T    sub-space diagonalisation (order eigenvalues)
   LSUBROT=      F    optimize rotation matrix (better conditioning)
   TURBO    =      0    0=normal 1=particle mesh
   IRESTART =      0    0=no restart 2=restart with 2 vectors
   NREBOOT  =      0    no. of reboots
   NMIN     =      0    reboot dimension
   EREF     =   0.00    reference energy to select bands
   IMIX   =      4    mixing-type and parameters
     AMIX     =   0.40;   BMIX     =  1.00
     AMIX_MAG =   1.60;   BMIX_MAG =  1.00
     AMIN     =   0.10
     WC   =   100.;   INIMIX=   1;  MIXPRE=   1;  MAXMIX= -45

 Intra band minimization:
   WEIMIN = 0.0000     energy-eigenvalue tresh-hold
   EBREAK =  0.53E-10  absolut break condition
   DEPER  =   0.30     relativ break condition

   TIME   =   0.40     timestep for ELM

  volume/ion in A,a.u.               =      11.51        77.68
  Fermi-wavevector in a.u.,A,eV,Ry     =   1.408670  2.662001 26.998745  1.984352
  Thomas-Fermi vector in A             =   2.530804

 Write flags
   LWAVE        =      F    write WAVECAR
   LDOWNSAMPLE  =      F    k-point downsampling of WAVECAR
   LCHARG       =      F    write CHGCAR
   LVTOT        =      F    write LOCPOT, total local potential
   LVHAR        =      F    write LOCPOT, Hartree potential only
   LELF         =      F    write electronic localiz. function (ELF)
   LORBIT       =      0    0 simple, 1 ext, 2 COOP (PROOUT), +10 PAW based schemes


 Dipole corrections
   LMONO  =      F    monopole corrections only (constant potential shift)
   LDIPOL =      F    correct potential (dipole corrections)
   IDIPOL =      0    1-x, 2-y, 3-z, 4-all directions
   EPSILON=  1.0000000 bulk dielectric constant

 Exchange correlation treatment:
   GGA     =    --    GGA type
   LEXCH   =     8    internal setting for exchange type
   LIBXC   =     F    Libxc
   VOSKOWN =     0    Vosko Wilk Nusair interpolation
   LHFCALC =     F    Hartree Fock is set to
   LHFONE  =     F    Hartree Fock one center treatment
   AEXX    =    0.0000 exact exchange contribution

 Linear response parameters
   LEPSILON=     T    determine dielectric tensor
   LRPA    =     F    only Hartree local field effects (RPA)
   LNABLA  =     F    use nabla operator in PAW spheres
   LVEL    =     F    velocity operator in full k-point grid
   CSHIFT  =0.1000    complex shift for real part using Kramers Kronig
   OMEGAMAX=  -1.0    maximum frequency
   DEG_THRESHOLD= 0.2000000E-02 threshold for treating states as degnerate
   RTIME   =   -0.100 relaxation time in fs
  (WPLASMAI=    0.000 imaginary part of plasma frequency in eV, 0.658/RTIME)
   DFIELD  = 0.0000000 0.0000000 0.0000000 field for delta impulse in time

  Optional k-point grid parameters
   LKPOINTS_OPT  =     F    use optional k-point grid
   KPOINTS_OPT_MODE=     1    mode for optional k-point grid

 Orbital magnetization related:
   ORBITALMAG=     F  switch on orbital magnetization
   LCHIMAG   =     F  perturbation theory with respect to B field
   DQ        =  0.001000  dq finite difference perturbation B field
   LLRAUG    =     F  two centre corrections for induced B field

 PEAD related settings:
   LPEAD      =     T    switch on PEAD
   IPEAD      =     4    finite difference order for dpsi/dk
   LCALCPOL   =     F    calculate macroscopic polarization
   LCALCEPS   =     F    calculate dielectric tensor
   EFIELD_PEAD=    0.0000    0.0000    0.0000
   SKIP_EDOTP =     F
   LRPA       =     F
   SKIP_SCF   =     F


--------------------------------------------------------------------------------------------------------


 Static calculation
 charge density and potential will be updated during run
 non-spin polarized calculation
 Variant of blocked Davidson
 Davidson routine will perform the subspace rotation
 perform sub-space diagonalisation
    after iterative eigenvector-optimisation
 modified Broyden-mixing scheme, WC =      100.0
 initial mixing is a Kerker type mixing with AMIX =  0.4000 and BMIX =      1.0000
 Hartree-type preconditioning will be used
 using additional bands           80
 real space projection scheme for non local part
 use partial core corrections
 calculate Harris-corrections to forces
   (improved forces if not selfconsistent)
 use gradient corrections
 use of overlap-Matrix (Vanderbilt PP)
 Gauss-broadening in eV      SIGMA  =   0.10


--------------------------------------------------------------------------------------------------------


  energy-cutoff  :      400.00
  volume of cell :     1243.14
      direct lattice vectors                 reciprocal lattice vectors
    11.376843452  0.000000000  0.000000000     0.087897843  0.000000000  0.000000000
     0.000000000 11.376843452  0.000000000     0.000000000  0.087897843  0.000000000
     0.000000000  0.000000000  9.604574204     0.000000000  0.000000000  0.104117057

  length of vectors
    11.376843452 11.376843452  9.604574204     0.087897843  0.087897843  0.104117057



 k-points in units of 2pi/SCALE and weight: K-Points
   0.02197446  0.02197446  0.02602926       0.250
  -0.02197446  0.02197446  0.02602926       0.250
  -0.02197446 -0.02197446  0.02602926       0.250
   0.02197446 -0.02197446  0.02602926       0.250

 k-points in reciprocal lattice and weights: K-Points
   0.25000000  0.25000000  0.25000000       0.250
  -0.25000000  0.25000000  0.25000000       0.250
  -0.25000000 -0.25000000  0.25000000       0.250
   0.25000000 -0.25000000  0.25000000       0.250

 position of ions in fractional coordinates (direct lattice)
   0.16666667  0.16666667  0.50000000
   0.16666667  0.50000000  0.50000000
   0.16666667  0.83333331  0.50000000
   0.50000000  0.16666667  0.50000000
   0.50000000  0.50000000  0.50000000
   0.50000000  0.83333331  0.50000000
   0.83333331  0.16666667  0.50000000
   0.83333331  0.50000000  0.50000000
   0.83333331  0.83333331  0.50000000
   0.16666667  0.00000000  0.75000000
   0.16666667  0.33333334  0.75000000
   0.16666667  0.66666669  0.75000000
   0.50000000  0.00000000  0.75000000
   0.50000000  0.33333334  0.75000000
   0.50000000  0.66666669  0.75000000
   0.83333331  0.00000000  0.75000000
   0.83333331  0.33333334  0.75000000
   0.83333331  0.66666669  0.75000000
   0.00000000  0.00000000  0.00000000
   0.00000000  0.33333334  0.00000000
   0.00000000  0.66666669  0.00000000
   0.33333334  0.00000000  0.00000000
   0.33333334  0.33333334  0.00000000
   0.33333334  0.66666669  0.00000000
   0.66666669  0.00000000  0.00000000
   0.66666669  0.33333334  0.00000000
   0.66666669  0.66666669  0.00000000
   0.00000000  0.16666667  0.25000000
   0.00000000  0.50000000  0.25000000
   0.00000000  0.83333331  0.25000000
   0.33333334  0.16666667  0.25000000
   0.33333334  0.50000000  0.25000000
   0.33333334  0.83333331  0.25000000
   0.66666669  0.16666667  0.25000000
   0.66666669  0.50000000  0.25000000
   0.66666669  0.83333331  0.25000000
   0.00000000  0.16666667  0.45789859
   0.00000000  0.50000000  0.45789859
   0.00000000  0.83333331  0.45789859
   0.33333334  0.16666667  0.45789859
   0.33333334  0.50000000  0.45789859
   0.33333334  0.83333331  0.45789859
   0.66666669  0.16666667  0.47872200
   0.66666669  0.50000000  0.45789859
   0.66666669  0.83333331  0.45789859
   0.16666667  0.16666667  0.70789862
   0.16666667  0.50000000  0.70789862
   0.16666667  0.83333331  0.70789862
   0.50000000  0.16666667  0.70789862
   0.50000000  0.50000000  0.70789862
   0.50000000  0.83333331  0.70789862
   0.83333331  0.16666667  0.70789862
   0.83333331  0.50000000  0.70789862
   0.83333331  0.83333331  0.70789862
   0.16666667  0.00000000  0.54210138
   0.16666667  0.33333334  0.54210138
   0.16666667  0.66666669  0.54210138
   0.50000000  0.00000000  0.54210138
   0.50000000  0.33333334  0.54210138
   0.50000000  0.66666669  0.54210138
   0.83333331  0.00000000  0.54210138
   0.83333331  0.33333334  0.54210138
   0.83333331  0.66666669  0.54210138
   0.00000000  0.00000000  0.79210138
   0.00000000  0.33333334  0.79210138
   0.00000000  0.66666669  0.79210138
   0.33333334  0.00000000  0.79210138
   0.33333334  0.33333334  0.79210138
   0.33333334  0.66666669  0.79210138
   0.66666669  0.00000000  0.79210138
   0.66666669  0.33333334  0.79210138
   0.66666669  0.66666669  0.79210138
   0.16666667  0.00000000  0.95789862
   0.16666667  0.33333334  0.95789862
   0.16666667  0.66666669  0.95789862
   0.50000000  0.00000000  0.95789862
   0.50000000  0.33333334  0.95789862
   0.50000000  0.66666669  0.95789862
   0.83333331  0.00000000  0.95789862
   0.83333331  0.33333334  0.95789862
   0.83333331  0.66666669  0.95789862
   0.00000000  0.00000000  0.20789860
   0.00000000  0.33333334  0.20789860
   0.00000000  0.66666669  0.20789860
   0.33333334  0.00000000  0.20789860
   0.33333334  0.33333334  0.20789860
   0.33333334  0.66666669  0.20789860
   0.66666669  0.00000000  0.20789860
   0.66666669  0.33333334  0.20789860
   0.66666669  0.66666669  0.20789860
   0.00000000  0.16666667  0.04210141
   0.00000000  0.50000000  0.04210141
   0.00000000  0.83333331  0.04210141
   0.33333334  0.16666667  0.04210141
   0.33333334  0.50000000  0.04210141
   0.33333334  0.83333331  0.04210141
   0.66666669  0.16666667  0.04210141
   0.66666669  0.50000000  0.04210141
   0.66666669  0.83333331  0.04210141
   0.16666667  0.16666667  0.29210141
   0.16666667  0.50000000  0.29210141
   0.16666667  0.83333331  0.29210141
   0.50000000  0.16666667  0.29210141
   0.50000000  0.50000000  0.29210141
   0.50000000  0.83333331  0.29210141
   0.83333331  0.16666667  0.29210141
   0.83333331  0.50000000  0.29210141
   0.83333331  0.83333331  0.29210141

 position of ions in cartesian coordinates  (Angst):
   1.89614063  1.89614063  4.80228710
   1.89614063  5.68842173  4.80228710
   1.89614063  9.48070265  4.80228710
   5.68842173  1.89614063  4.80228710
   5.68842173  5.68842173  4.80228710
   5.68842173  9.48070265  4.80228710
   9.48070265  1.89614063  4.80228710
   9.48070265  5.68842173  4.80228710
   9.48070265  9.48070265  4.80228710
   1.89614063  0.00000000  7.20343065
   1.89614063  3.79228126  7.20343065
   1.89614063  7.58456253  7.20343065
   5.68842173  0.00000000  7.20343065
   5.68842173  3.79228126  7.20343065
   5.68842173  7.58456253  7.20343065
   9.48070265  0.00000000  7.20343065
   9.48070265  3.79228126  7.20343065
   9.48070265  7.58456253  7.20343065
   0.00000000  0.00000000  0.00000000
   0.00000000  3.79228126  0.00000000
   0.00000000  7.58456253  0.00000000
   3.79228126  0.00000000  0.00000000
   3.79228126  3.79228126  0.00000000
   3.79228126  7.58456253  0.00000000
   7.58456253  0.00000000  0.00000000
   7.58456253  3.79228126  0.00000000
   7.58456253  7.58456253  0.00000000
   0.00000000  1.89614063  2.40114355
   0.00000000  5.68842173  2.40114355
   0.00000000  9.48070265  2.40114355
   3.79228126  1.89614063  2.40114355
   3.79228126  5.68842173  2.40114355
   3.79228126  9.48070265  2.40114355
   7.58456253  1.89614063  2.40114355
   7.58456253  5.68842173  2.40114355
   7.58456253  9.48070265  2.40114355
   0.00000000  1.89614063  4.39792096
   0.00000000  5.68842173  4.39792096
   0.00000000  9.48070265  4.39792096
   3.79228126  1.89614063  4.39792096
   3.79228126  5.68842173  4.39792096
   3.79228126  9.48070265  4.39792096
   7.58456253  1.89614063  4.59792096
   7.58456253  5.68842173  4.39792096
   7.58456253  9.48070265  4.39792096
   1.89614063  1.89614063  6.79906479
   1.89614063  5.68842173  6.79906479
   1.89614063  9.48070265  6.79906479
   5.68842173  1.89614063  6.79906479
   5.68842173  5.68842173  6.79906479
   5.68842173  9.48070265  6.79906479
   9.48070265  1.89614063  6.79906479
   9.48070265  5.68842173  6.79906479
   9.48070265  9.48070265  6.79906479
   1.89614063  0.00000000  5.20665296
   1.89614063  3.79228126  5.20665296
   1.89614063  7.58456253  5.20665296
   5.68842173  0.00000000  5.20665296
   5.68842173  3.79228126  5.20665296
   5.68842173  7.58456253  5.20665296
   9.48070265  0.00000000  5.20665296
   9.48070265  3.79228126  5.20665296
   9.48070265  7.58456253  5.20665296
   0.00000000  0.00000000  7.60779651
   0.00000000  3.79228126  7.60779651
   0.00000000  7.58456253  7.60779651
   3.79228126  0.00000000  7.60779651
   3.79228126  3.79228126  7.60779651
   3.79228126  7.58456253  7.60779651
   7.58456253  0.00000000  7.60779651
   7.58456253  3.79228126  7.60779651
   7.58456253  7.58456253  7.60779651
   1.89614063  0.00000000  9.20020834
   1.89614063  3.79228126  9.20020834
   1.89614063  7.58456253  9.20020834
   5.68842173  0.00000000  9.20020834
   5.68842173  3.79228126  9.20020834
   5.68842173  7.58456253  9.20020834
   9.48070265  0.00000000  9.20020834
   9.48070265  3.79228126  9.20020834
   9.48070265  7.58456253  9.20020834
   0.00000000  0.00000000  1.99677755
   0.00000000  3.79228126  1.99677755
   0.00000000  7.58456253  1.99677755
   3.79228126  0.00000000  1.99677755
   3.79228126  3.79228126  1.99677755
   3.79228126  7.58456253  1.99677755
   7.58456253  0.00000000  1.99677755
   7.58456253  3.79228126  1.99677755
   7.58456253  7.58456253  1.99677755
   0.00000000  1.89614063  0.40436607
   0.00000000  5.68842173  0.40436607
   0.00000000  9.48070265  0.40436607
   3.79228126  1.89614063  0.40436607
   3.79228126  5.68842173  0.40436607
   3.79228126  9.48070265  0.40436607
   7.58456253  1.89614063  0.40436607
   7.58456253  5.68842173  0.40436607
   7.58456253  9.48070265  0.40436607
   1.89614063  1.89614063  2.80550970
   1.89614063  5.68842173  2.80550970
   1.89614063  9.48070265  2.80550970
   5.68842173  1.89614063  2.80550970
   5.68842173  5.68842173  2.80550970
   5.68842173  9.48070265  2.80550970
   9.48070265  1.89614063  2.80550970
   9.48070265  5.68842173  2.80550970
   9.48070265  9.48070265  2.80550970



--------------------------------------------------------------------------------------------------------


 k-point   1 :   0.2500 0.2500 0.2500  plane waves:   22590
 k-point   2 :  -0.2500 0.2500 0.2500  plane waves:   22590
 k-point   3 :  -0.2500-0.2500 0.2500  plane waves:   22590
 k-point   4 :   0.2500-0.2500 0.2500  plane waves:   22590

 maximum and minimum number of plane-waves per node :     22590    22590

 maximum number of plane-waves:     22590
 maximum index in each direction:
   IXMAX=   18   IYMAX=   18   IZMAX=   15
   IXMIN=  -18   IYMIN=  -18   IZMIN=  -15


 serial   3D FFT for wavefunctions
 parallel 3D FFT for charge:
    minimum data exchange during FFTs selected (reduces bandwidth)


 total amount of memory used by VASP MPI-rank0   266725. kBytes
=======================================================================

   base      :      30000. kBytes
   nonlr-proj:      19556. kBytes
   fftplans  :      10927. kBytes
   grid      :      23181. kBytes
   one-center:       1679. kBytes
   wavefun   :     181382. kBytes

     INWAV:  cpu time      0.0000: real time      0.0000
 Broyden mixing: mesh for mixing (old mesh)
   NGX = 37   NGY = 37   NGZ = 31
  (NGX  =112   NGY  =112   NGZ  = 96)
  gives a total of  42439 points

 initial charge density was supplied:
 charge density of overlapping atoms calculated
 number of electron     792.0000000 magnetization
 keeping initial charge density in first step


--------------------------------------------------------------------------------------------------------


 Maximum index for non-local projection operator         1743
 Maximum index for augmentation-charges         1189 (set IRDMAX)


--------------------------------------------------------------------------------------------------------


 First call to EWALD:  gamma=   0.165
 Maximum number of real-space cells 3x 3x 3
 Maximum number of reciprocal cells 3x 3x 3

    FEWALD:  cpu time      0.0942: real time      0.0949


--------------------------------------- Iteration      1(   1)  ---------------------------------------


    POTLOK:  cpu time      0.1599: real time      0.1632
    SETDIJ:  cpu time      0.0092: real time      0.0102
     EDDAV:  cpu time     12.3477: real time     12.5054
       DOS:  cpu time      0.0035: real time      0.0057
    --------------------------------------------
      LOOP:  cpu time     12.5203: real time     12.6845

 eigenvalue-minimisations  :  3824
 total energy-change (2. order) : 0.1155821E+05  (-0.3305475E+05)
 number of electron     792.0000000 magnetization
 augmentation part      792.0000000 magnetization

 Free energy of the ion-electron system (eV)
  ---------------------------------------------------
  alpha Z        PSCENC =      3563.47650690
  Ewald energy   TEWEN  =    -48603.80794548
  -Hartree energ DENC   =    -18827.78428013
  -exchange      EXHF   =         0.00000000
  -V(xc)+E(xc)   XCENC  =      3286.75290567
  PAW double counting   =     54431.09303398   -54537.79254336
  entropy T*S    EENTRO =        -0.14067611
  eigenvalues    EBANDS =      3590.01372916
  atomic energy  EATOM  =     68656.39924158
  Solvation  Ediel_sol  =         0.00000000
  ---------------------------------------------------
  free energy    TOTEN  =     11558.20997221 eV

  energy without entropy =    11558.35064832  energy(sigma->0) =    11558.28031027


--------------------------------------------------------------------------------------------------------




--------------------------------------- Iteration      1(   2)  ---------------------------------------


     EDDAV:  cpu time     11.8689: real time     11.9658
       DOS:  cpu time      0.0007: real time      0.0007
    --------------------------------------------
      LOOP:  cpu time     11.8696: real time     11.9665

 eigenvalue-minimisations  :  3808
 total energy-change (2. order) :-0.9985766E+04  (-0.9555558E+04)
 number of electron     792.0000000 magnetization
 augmentation part      792.0000000 magnetization

 Free energy of the ion-electron system (eV)
  ---------------------------------------------------
  alpha Z        PSCENC =      3563.47650690
  Ewald energy   TEWEN  =    -48603.80794548
  -Hartree energ DENC   =    -18827.78428013
  -exchange      EXHF   =         0.00000000
  -V(xc)+E(xc)   XCENC  =      3286.75290567
  PAW double counting   =     54431.09303398   -54537.79254336
  entropy T*S    EENTRO =        -0.28948198
  eigenvalues    EBANDS =     -6395.60305457
  atomic energy  EATOM  =     68656.39924158
  Solvation  Ediel_sol  =         0.00000000
  ---------------------------------------------------
  free energy    TOTEN  =      1572.44438261 eV

  energy without entropy =     1572.73386459  energy(sigma->0) =     1572.58912360


--------------------------------------------------------------------------------------------------------




--------------------------------------- Iteration      1(   3)  ---------------------------------------


     EDDAV:  cpu time     13.1757: real time     13.2815
       DOS:  cpu time      0.0006: real time      0.0006
    --------------------------------------------
      LOOP:  cpu time     13.1763: real time     13.2821

 eigenvalue-minimisations  :  4416
 total energy-change (2. order) :-0.2640431E+04  (-0.2568622E+04)
 number of electron     792.0000000 magnetization
 augmentation part      792.0000000 magnetization

 Free energy of the ion-electron system (eV)
  ---------------------------------------------------
  alpha Z        PSCENC =      3563.47650690
  Ewald energy   TEWEN  =    -48603.80794548
  -Hartree energ DENC   =    -18827.78428013
  -exchange      EXHF   =         0.00000000
  -V(xc)+E(xc)   XCENC  =      3286.75290567
  PAW double counting   =     54431.09303398   -54537.79254336
  entropy T*S    EENTRO =        -0.00000000
  eigenvalues    EBANDS =     -9036.32369284
  atomic energy  EATOM  =     68656.39924158
  Solvation  Ediel_sol  =         0.00000000
  ---------------------------------------------------
  free energy    TOTEN  =     -1067.98677368 eV

  energy without entropy =    -1067.98677368  energy(sigma->0) =    -1067.98677368


--------------------------------------------------------------------------------------------------------




--------------------------------------- Iteration      1(   4)  ---------------------------------------


     EDDAV:  cpu time     14.9152: real time     15.0349
       DOS:  cpu time      0.0006: real time      0.0006
    --------------------------------------------
      LOOP:  cpu time     14.9159: real time     15.0356

 eigenvalue-minimisations  :  5104
 total energy-change (2. order) :-0.2053716E+03  (-0.2042754E+03)
 number of electron     792.0000000 magnetization
 augmentation part      792.0000000 magnetization

 Free energy of the ion-electron system (eV)
  ---------------------------------------------------
  alpha Z        PSCENC =      3563.47650690
  Ewald energy   TEWEN  =    -48603.80794548
  -Hartree energ DENC   =    -18827.78428013
  -exchange      EXHF   =         0.00000000
  -V(xc)+E(xc)   XCENC  =      3286.75290567
  PAW double counting   =     54431.09303398   -54537.79254336
  entropy T*S    EENTRO =        -0.00000000
  eigenvalues    EBANDS =     -9241.69525212
  atomic energy  EATOM  =     68656.39924158
  Solvation  Ediel_sol  =         0.00000000
  ---------------------------------------------------
  free energy    TOTEN  =     -1273.35833296 eV

  energy without entropy =    -1273.35833296  energy(sigma->0) =    -1273.35833296


--------------------------------------------------------------------------------------------------------




--------------------------------------- Iteration      1(   5)  ---------------------------------------


     EDDAV:  cpu time     14.7058: real time     14.8264
       DOS:  cpu time      0.0005: real time      0.0006
    CHARGE:  cpu time      0.2150: real time      0.2194
    MIXING:  cpu time      0.0105: real time      0.0137
    --------------------------------------------
      LOOP:  cpu time     14.9319: real time     15.0602

 eigenvalue-minimisations  :  5040
 total energy-change (2. order) :-0.5253335E+01  (-0.5243588E+01)
 number of electron     792.0003053 magnetization
 augmentation part      202.2319846 magnetization

 Broyden mixing:
  rms(total) = 0.17237E+02    rms(broyden)= 0.17235E+02
  rms(prec ) = 0.19176E+02
  weight for this iteration     100.00

 Free energy of the ion-electron system (eV)
  ---------------------------------------------------
  alpha Z        PSCENC =      3563.47650690
  Ewald energy   TEWEN  =    -48603.80794548
  -Hartree energ DENC   =    -18827.78428013
  -exchange      EXHF   =         0.00000000
  -V(xc)+E(xc)   XCENC  =      3286.75290567
  PAW double counting   =     54431.09303398   -54537.79254336
  entropy T*S    EENTRO =        -0.00000000
  eigenvalues    EBANDS =     -9246.94858733
  atomic energy  EATOM  =     68656.39924158
  Solvation  Ediel_sol  =         0.00000000
  ---------------------------------------------------
  free energy    TOTEN  =     -1278.61166817 eV

  energy without entropy =    -1278.61166817  energy(sigma->0) =    -1278.61166817


--------------------------------------------------------------------------------------------------------




--------------------------------------- Iteration      1(   6)  ---------------------------------------


    POTLOK:  cpu time      0.1535: real time      0.1548
    SETDIJ:  cpu time      0.0363: real time      0.0365
     EDDAV:  cpu time     14.7122: real time     15.0159
       DOS:  cpu time      0.0005: real time      0.0005
    CHARGE:  cpu time      0.2099: real time      0.2124
    MIXING:  cpu time      0.0112: real time      0.0169
    --------------------------------------------
      LOOP:  cpu time     15.1237: real time     15.4372

 eigenvalue-minimisations  :  4976
 total energy-change (2. order) : 0.3022198E+03  (-0.1980381E+03)
 number of electron     792.0002458 magnetization
 augmentation part      214.1398890 magnetization

 Broyden mixing:
  rms(total) = 0.53142E+01    rms(broyden)= 0.53093E+01
  rms(prec ) = 0.58465E+01
  weight for this iteration     100.00

 eigenvalues of (default mixing * dielectric matrix)
  average eigenvalue GAMMA=   0.9639
  0.9639

 Free energy of the ion-electron system (eV)
  ---------------------------------------------------
  alpha Z        PSCENC =      3563.47650690
  Ewald energy   TEWEN  =    -48603.80794548
  -Hartree energ DENC   =    -19052.52085309
  -exchange      EXHF   =         0.00000000
  -V(xc)+E(xc)   XCENC  =      3337.79639526
  PAW double counting   =     68237.88516265   -68470.16314728
  entropy T*S    EENTRO =        -0.00000000
  eigenvalues    EBANDS =     -8645.45726716
  atomic energy  EATOM  =     68656.39924158
  Solvation  Ediel_sol  =         0.00000000
  ---------------------------------------------------
  free energy    TOTEN  =      -976.39190661 eV

  energy without entropy =     -976.39190661  energy(sigma->0) =     -976.39190661


--------------------------------------------------------------------------------------------------------




--------------------------------------- Iteration      1(   7)  ---------------------------------------


    POTLOK:  cpu time      0.1560: real time      0.1577
    SETDIJ:  cpu time      0.0293: real time      0.0294
     EDDAV:  cpu time     15.6013: real time     15.8766
       DOS:  cpu time      0.0027: real time      0.0027
    CHARGE:  cpu time      0.2117: real time      0.2129
    MIXING:  cpu time      0.0111: real time      0.0121
    --------------------------------------------
      LOOP:  cpu time     16.0121: real time     16.2914

 eigenvalue-minimisations  :  5328
 total energy-change (2. order) : 0.4381566E+01  (-0.2878975E+02)
 number of electron     792.0002648 magnetization
 augmentation part      207.3098125 magnetization

 Broyden mixing:
  rms(total) = 0.45982E+01    rms(broyden)= 0.45980E+01
  rms(prec ) = 0.47930E+01
  weight for this iteration     100.00

 eigenvalues of (default mixing * dielectric matrix)
  average eigenvalue GAMMA=   1.8401
  0.7364  2.9438

 Free energy of the ion-electron system (eV)
  ---------------------------------------------------
  alpha Z        PSCENC =      3563.47650690
  Ewald energy   TEWEN  =    -48603.80794548
  -Hartree energ DENC   =    -18894.75574054
  -exchange      EXHF   =         0.00000000
  -V(xc)+E(xc)   XCENC  =      3318.50301638
  PAW double counting   =     75216.93550841   -75460.04368192
  entropy T*S    EENTRO =        -0.00000000
  eigenvalues    EBANDS =     -8768.71724641
  atomic energy  EATOM  =     68656.39924158
  Solvation  Ediel_sol  =         0.00000000
  ---------------------------------------------------
  free energy    TOTEN  =      -972.01034108 eV

  energy without entropy =     -972.01034108  energy(sigma->0) =     -972.01034108


--------------------------------------------------------------------------------------------------------




--------------------------------------- Iteration      1(   8)  ---------------------------------------


    POTLOK:  cpu time      0.1406: real time      0.1422
    SETDIJ:  cpu time      0.0504: real time      0.0506
     EDDAV:  cpu time     14.6924: real time     14.8044
       DOS:  cpu time      0.0026: real time      0.0026
    CHARGE:  cpu time      0.2106: real time      0.2117
    MIXING:  cpu time      0.0125: real time      0.0126
    --------------------------------------------
      LOOP:  cpu time     15.1090: real time     15.2242

 eigenvalue-minimisations  :  5000
 total energy-change (2. order) :-0.3617879E-01  (-0.1110320E+02)
 number of electron     792.0002582 magnetization
 augmentation part      215.5660945 magnetization

 Broyden mixing:
  rms(total) = 0.33559E+01    rms(broyden)= 0.33558E+01
  rms(prec ) = 0.36588E+01
  weight for this iteration     100.00

 eigenvalues of (default mixing * dielectric matrix)
  average eigenvalue GAMMA=   1.2324
  2.1753  0.9255  0.5965

 Free energy of the ion-electron system (eV)
  ---------------------------------------------------
  alpha Z        PSCENC =      3563.47650690
  Ewald energy   TEWEN  =    -48603.80794548
  -Hartree energ DENC   =    -18517.21197325
  -exchange      EXHF   =         0.00000000
  -V(xc)+E(xc)   XCENC  =      3303.71370094
  PAW double counting   =     93733.04497352   -94048.32451448
  entropy T*S    EENTRO =        -0.00000000
  eigenvalues    EBANDS =     -9059.33650961
  atomic energy  EATOM  =     68656.39924158
  Solvation  Ediel_sol  =         0.00000000
  ---------------------------------------------------
  free energy    TOTEN  =      -972.04651988 eV

  energy without entropy =     -972.04651988  energy(sigma->0) =     -972.04651988


--------------------------------------------------------------------------------------------------------




--------------------------------------- Iteration      1(   9)  ---------------------------------------


    POTLOK:  cpu time      0.1540: real time      0.1553
    SETDIJ:  cpu time      0.0331: real time      0.0332
     EDDAV:  cpu time     14.9376: real time     15.0461
       DOS:  cpu time      0.0023: real time      0.0023
    CHARGE:  cpu time      0.2081: real time      0.2093
    MIXING:  cpu time      0.0128: real time      0.0130
    --------------------------------------------
      LOOP:  cpu time     15.3477: real time     15.4592

 eigenvalue-minimisations  :  5080
 total energy-change (2. order) : 0.5580065E+01  (-0.3466932E+01)
 number of electron     792.0002630 magnetization
 augmentation part      211.4844088 magnetization

 Broyden mixing:
  rms(total) = 0.27352E+00    rms(broyden)= 0.27281E+00
  rms(prec ) = 0.29979E+00
  weight for this iteration     100.00

 eigenvalues of (default mixing * dielectric matrix)
  average eigenvalue GAMMA=   1.1250
  2.1581  0.8538  0.8538  0.6344

 Free energy of the ion-electron system (eV)
  ---------------------------------------------------
  alpha Z        PSCENC =      3563.47650690
  Ewald energy   TEWEN  =    -48603.80794548
  -Hartree energ DENC   =    -18660.73323257
  -exchange      EXHF   =         0.00000000
  -V(xc)+E(xc)   XCENC  =      3308.57038710
  PAW double counting   =     88557.50536414   -88853.82390687
  entropy T*S    EENTRO =        -0.00000000
  eigenvalues    EBANDS =     -8934.05286941
  atomic energy  EATOM  =     68656.39924158
  Solvation  Ediel_sol  =         0.00000000
  ---------------------------------------------------
  free energy    TOTEN  =      -966.46645460 eV

  energy without entropy =     -966.46645460  energy(sigma->0) =     -966.46645460


--------------------------------------------------------------------------------------------------------




--------------------------------------- Iteration      1(  10)  ---------------------------------------


    POTLOK:  cpu time      0.1461: real time      0.1477
    SETDIJ:  cpu time      0.0391: real time      0.0393
     EDDAV:  cpu time     15.3259: real time     15.4407
       DOS:  cpu time      0.0026: real time      0.0026
    CHARGE:  cpu time      0.2107: real time      0.2119
    MIXING:  cpu time      0.0118: real time      0.0118
    --------------------------------------------
      LOOP:  cpu time     15.7362: real time     15.8540

 eigenvalue-minimisations  :  5256
 total energy-change (2. order) :-0.2887069E-01  (-0.7845437E-01)
 number of electron     792.0002625 magnetization
 augmentation part      211.4693209 magnetization

 Broyden mixing:
  rms(total) = 0.19548E+00    rms(broyden)= 0.19542E+00
  rms(prec ) = 0.21190E+00
  weight for this iteration     100.00

 eigenvalues of (default mixing * dielectric matrix)
  average eigenvalue GAMMA=   1.2836
  2.4680  1.7103  1.0677  0.6509  0.5210

 Free energy of the ion-electron system (eV)
  ---------------------------------------------------
  alpha Z        PSCENC =      3563.47650690
  Ewald energy   TEWEN  =    -48603.80794548
  -Hartree energ DENC   =    -18684.94256345
  -exchange      EXHF   =         0.00000000
  -V(xc)+E(xc)   XCENC  =      3310.24198000
  PAW double counting   =     88662.18874677   -88960.46423684
  entropy T*S    EENTRO =        -0.00000000
  eigenvalues    EBANDS =     -8909.58705477
  atomic energy  EATOM  =     68656.39924158
  Solvation  Ediel_sol  =         0.00000000
  ---------------------------------------------------
  free energy    TOTEN  =      -966.49532529 eV

  energy without entropy =     -966.49532529  energy(sigma->0) =     -966.49532529


--------------------------------------------------------------------------------------------------------




--------------------------------------- Iteration      1(  11)  ---------------------------------------


    POTLOK:  cpu time      0.1467: real time      0.1483
    SETDIJ:  cpu time      0.0222: real time      0.0223
     EDDAV:  cpu time     13.4167: real time     13.5174
       DOS:  cpu time      0.0025: real time      0.0025
    CHARGE:  cpu time      0.2118: real time      0.2129
    MIXING:  cpu time      0.0143: real time      0.0144
    --------------------------------------------
      LOOP:  cpu time     13.8142: real time     13.9178

 eigenvalue-minimisations  :  4528
 total energy-change (2. order) :-0.6827624E-01  (-0.4949075E-01)
 number of electron     792.0002615 magnetization
 augmentation part      211.4895524 magnetization

 Broyden mixing:
  rms(total) = 0.22251E+00    rms(broyden)= 0.22248E+00
  rms(prec ) = 0.26883E+00
  weight for this iteration     100.00

 eigenvalues of (default mixing * dielectric matrix)
  average eigenvalue GAMMA=   1.2627
  2.5497  1.8163  1.0090  1.0090  0.5960  0.5960

 Free energy of the ion-electron system (eV)
  ---------------------------------------------------
  alpha Z        PSCENC =      3563.47650690
  Ewald energy   TEWEN  =    -48603.80794548
  -Hartree energ DENC   =    -18724.87573302
  -exchange      EXHF   =         0.00000000
  -V(xc)+E(xc)   XCENC  =      3313.06991128
  PAW double counting   =     89136.25502519   -89438.81689615
  entropy T*S    EENTRO =        -0.00000000
  eigenvalues    EBANDS =     -8868.26371184
  atomic energy  EATOM  =     68656.39924158
  Solvation  Ediel_sol  =         0.00000000
  ---------------------------------------------------
  free energy    TOTEN  =      -966.56360153 eV

  energy without entropy =     -966.56360153  energy(sigma->0) =     -966.56360153


--------------------------------------------------------------------------------------------------------




--------------------------------------- Iteration      1(  12)  ---------------------------------------


    POTLOK:  cpu time      0.1507: real time      0.1524
    SETDIJ:  cpu time      0.0391: real time      0.0393
     EDDAV:  cpu time     19.9843: real time     20.1081
       DOS:  cpu time      0.0034: real time      0.0034
    CHARGE:  cpu time      0.2290: real time      0.2302
    MIXING:  cpu time      0.0153: real time      0.0154
    --------------------------------------------
      LOOP:  cpu time     20.4219: real time     20.5488

 eigenvalue-minimisations  :  5320
 total energy-change (2. order) : 0.5898424E-01  (-0.5199108E-01)
 number of electron     792.0002624 magnetization
 augmentation part      211.1774532 magnetization

 Broyden mixing:
  rms(total) = 0.50081E-01    rms(broyden)= 0.49949E-01
  rms(prec ) = 0.58838E-01
  weight for this iteration     100.00

 eigenvalues of (default mixing * dielectric matrix)
  average eigenvalue GAMMA=   1.2155
  2.5833  1.6380  1.3157  1.0743  0.7364  0.5804  0.5804

 Free energy of the ion-electron system (eV)
  ---------------------------------------------------
  alpha Z        PSCENC =      3563.47650690
  Ewald energy   TEWEN  =    -48603.80794548
  -Hartree energ DENC   =    -18721.84003666
  -exchange      EXHF   =         0.00000000
  -V(xc)+E(xc)   XCENC  =      3312.41691839
  PAW double counting   =     89173.02438831   -89474.79616962
  entropy T*S    EENTRO =        -0.00000000
  eigenvalues    EBANDS =     -8871.37752072
  atomic energy  EATOM  =     68656.39924158
  Solvation  Ediel_sol  =         0.00000000
  ---------------------------------------------------
  free energy    TOTEN  =      -966.50461729 eV

  energy without entropy =     -966.50461729  energy(sigma->0) =     -966.50461729


--------------------------------------------------------------------------------------------------------




--------------------------------------- Iteration      1(  13)  ---------------------------------------


    POTLOK:  cpu time      0.1934: real time      0.1951
    SETDIJ:  cpu time      0.0175: real time      0.0176
     EDDAV:  cpu time     21.8195: real time     21.9482
       DOS:  cpu time      0.0030: real time      0.0030
    CHARGE:  cpu time      0.2363: real time      0.2375
    MIXING:  cpu time      0.0148: real time      0.0149
    --------------------------------------------
      LOOP:  cpu time     22.2844: real time     22.4163

 eigenvalue-minimisations  :  5312
 total energy-change (2. order) : 0.4147329E-03  (-0.1553190E-02)
 number of electron     792.0002623 magnetization
 augmentation part      211.2121827 magnetization

 Broyden mixing:
  rms(total) = 0.26555E-01    rms(broyden)= 0.26545E-01
  rms(prec ) = 0.32117E-01
  weight for this iteration     100.00

 eigenvalues of (default mixing * dielectric matrix)
  average eigenvalue GAMMA=   1.1798
  2.5938  1.6984  1.6984  0.9581  0.6515  0.6515  0.6544  0.5322

 Free energy of the ion-electron system (eV)
  ---------------------------------------------------
  alpha Z        PSCENC =      3563.47650690
  Ewald energy   TEWEN  =    -48603.80794548
  -Hartree energ DENC   =    -18721.94381640
  -exchange      EXHF   =         0.00000000
  -V(xc)+E(xc)   XCENC  =      3312.45177001
  PAW double counting   =     89195.76609937   -89497.49107007
  entropy T*S    EENTRO =        -0.00000000
  eigenvalues    EBANDS =     -8871.35498848
  atomic energy  EATOM  =     68656.39924158
  Solvation  Ediel_sol  =         0.00000000
  ---------------------------------------------------
  free energy    TOTEN  =      -966.50420256 eV

  energy without entropy =     -966.50420256  energy(sigma->0) =     -966.50420256


--------------------------------------------------------------------------------------------------------




--------------------------------------- Iteration      1(  14)  ---------------------------------------


    POTLOK:  cpu time      0.1994: real time      0.2014
    SETDIJ:  cpu time      0.0107: real time      0.0108
     EDDAV:  cpu time     21.2392: real time     21.3669
       DOS:  cpu time      0.0027: real time      0.0027
    CHARGE:  cpu time      0.2229: real time      0.2241
    MIXING:  cpu time      0.0169: real time      0.0170
    --------------------------------------------
      LOOP:  cpu time     21.6919: real time     21.8230

 eigenvalue-minimisations  :  5328
 total energy-change (2. order) : 0.4678732E-03  (-0.1793546E-03)
 number of electron     792.0002623 magnetization
 augmentation part      211.2248772 magnetization

 Broyden mixing:
  rms(total) = 0.13941E-01    rms(broyden)= 0.13939E-01
  rms(prec ) = 0.16743E-01
  weight for this iteration     100.00

 eigenvalues of (default mixing * dielectric matrix)
  average eigenvalue GAMMA=   1.2261
  2.5748  1.9143  1.9143  1.0115  0.9097  0.9097  0.5761  0.5761  0.6487

 Free energy of the ion-electron system (eV)
  ---------------------------------------------------
  alpha Z        PSCENC =      3563.47650690
  Ewald energy   TEWEN  =    -48603.80794548
  -Hartree energ DENC   =    -18722.83237315
  -exchange      EXHF   =         0.00000000
  -V(xc)+E(xc)   XCENC  =      3312.51729030
  PAW double counting   =     89191.44600333   -89493.09037271
  entropy T*S    EENTRO =        -0.00000000
  eigenvalues    EBANDS =     -8870.61208547
  atomic energy  EATOM  =     68656.39924158
  Solvation  Ediel_sol  =         0.00000000
  ---------------------------------------------------
  free energy    TOTEN  =      -966.50373469 eV

  energy without entropy =     -966.50373469  energy(sigma->0) =     -966.50373469


--------------------------------------------------------------------------------------------------------




--------------------------------------- Iteration      1(  15)  ---------------------------------------


    POTLOK:  cpu time      0.1803: real time      0.1823
    SETDIJ:  cpu time      0.0104: real time      0.0104
     EDDAV:  cpu time     21.0140: real time     21.1392
       DOS:  cpu time      0.0030: real time      0.0030
    CHARGE:  cpu time      0.2272: real time      0.2283
    MIXING:  cpu time      0.0152: real time      0.0153
    --------------------------------------------
      LOOP:  cpu time     21.4501: real time     21.5785

 eigenvalue-minimisations  :  5280
 total energy-change (2. order) :-0.4506254E-04  (-0.8945744E-04)
 number of electron     792.0002623 magnetization
 augmentation part      211.2250269 magnetization

 Broyden mixing:
  rms(total) = 0.78546E-02    rms(broyden)= 0.78508E-02
  rms(prec ) = 0.96293E-02
  weight for this iteration     100.00

 eigenvalues of (default mixing * dielectric matrix)
  average eigenvalue GAMMA=   1.2226
  2.6796  2.4119  1.9514  0.8899  0.8899  0.8416  0.8416  0.5861  0.5861  0.5478

 Free energy of the ion-electron system (eV)
  ---------------------------------------------------
  alpha Z        PSCENC =      3563.47650690
  Ewald energy   TEWEN  =    -48603.80794548
  -Hartree energ DENC   =    -18724.03627122
  -exchange      EXHF   =         0.00000000
  -V(xc)+E(xc)   XCENC  =      3312.58099825
  PAW double counting   =     89173.39215527   -89474.85346380
  entropy T*S    EENTRO =        -0.00000000
  eigenvalues    EBANDS =     -8869.65500126
  atomic energy  EATOM  =     68656.39924158
  Solvation  Ediel_sol  =         0.00000000
  ---------------------------------------------------
  free energy    TOTEN  =      -966.50377975 eV

  energy without entropy =     -966.50377975  energy(sigma->0) =     -966.50377975


--------------------------------------------------------------------------------------------------------




--------------------------------------- Iteration      1(  16)  ---------------------------------------


    POTLOK:  cpu time      0.1812: real time      0.1831
    SETDIJ:  cpu time      0.0170: real time      0.0171
     EDDAV:  cpu time     21.2065: real time     21.3327
       DOS:  cpu time      0.0006: real time      0.0006
    CHARGE:  cpu time      0.2386: real time      0.2415
    MIXING:  cpu time      0.0167: real time      0.0169
    --------------------------------------------
      LOOP:  cpu time     21.6607: real time     21.7918

 eigenvalue-minimisations  :  5288
 total energy-change (2. order) : 0.3564001E-04  (-0.7205749E-04)
 number of electron     792.0002622 magnetization
 augmentation part      211.2357614 magnetization

 Broyden mixing:
  rms(total) = 0.40883E-02    rms(broyden)= 0.40846E-02
  rms(prec ) = 0.47494E-02
  weight for this iteration     100.00

 eigenvalues of (default mixing * dielectric matrix)
  average eigenvalue GAMMA=   1.1728
  2.7748  2.4667  1.8972  0.9576  0.9576  0.7035  0.7035  0.6806  0.5660  0.5967
  0.5967

 Free energy of the ion-electron system (eV)
  ---------------------------------------------------
  alpha Z        PSCENC =      3563.47650690
  Ewald energy   TEWEN  =    -48603.80794548
  -Hartree energ DENC   =    -18724.82880907
  -exchange      EXHF   =         0.00000000
  -V(xc)+E(xc)   XCENC  =      3312.63646957
  PAW double counting   =     89168.22056906   -89469.62130534
  entropy T*S    EENTRO =        -0.00000000
  eigenvalues    EBANDS =     -8868.97847132
  atomic energy  EATOM  =     68656.39924158
  Solvation  Ediel_sol  =         0.00000000
  ---------------------------------------------------
  free energy    TOTEN  =      -966.50374411 eV

  energy without entropy =     -966.50374411  energy(sigma->0) =     -966.50374411


--------------------------------------------------------------------------------------------------------




--------------------------------------- Iteration      1(  17)  ---------------------------------------


    POTLOK:  cpu time      0.1934: real time      0.1948
    SETDIJ:  cpu time      0.0189: real time      0.0190
     EDDAV:  cpu time     21.2907: real time     21.4187
       DOS:  cpu time      0.0010: real time      0.0011
    CHARGE:  cpu time      0.2289: real time      0.2307
    MIXING:  cpu time      0.0163: real time      0.0165
    --------------------------------------------
      LOOP:  cpu time     21.7494: real time     21.8808

 eigenvalue-minimisations  :  5328
 total energy-change (2. order) :-0.6849528E-05  (-0.1162730E-04)
 number of electron     792.0002622 magnetization
 augmentation part      211.2361203 magnetization

 Broyden mixing:
  rms(total) = 0.39530E-02    rms(broyden)= 0.39518E-02
  rms(prec ) = 0.47058E-02
  weight for this iteration     100.00

 eigenvalues of (default mixing * dielectric matrix)
  average eigenvalue GAMMA=   1.1639
  2.8707  2.4622  1.8312  1.0460  1.0460  0.8552  0.8552  0.6487  0.6487  0.6221
  0.5698  0.5112

 Free energy of the ion-electron system (eV)
  ---------------------------------------------------
  alpha Z        PSCENC =      3563.47650690
  Ewald energy   TEWEN  =    -48603.80794548
  -Hartree energ DENC   =    -18725.08640459
  -exchange      EXHF   =         0.00000000
  -V(xc)+E(xc)   XCENC  =      3312.65218177
  PAW double counting   =     89166.14374820   -89467.54162630
  entropy T*S    EENTRO =        -0.00000000
  eigenvalues    EBANDS =     -8868.73945305
  atomic energy  EATOM  =     68656.39924158
  Solvation  Ediel_sol  =         0.00000000
  ---------------------------------------------------
  free energy    TOTEN  =      -966.50375096 eV

  energy without entropy =     -966.50375096  energy(sigma->0) =     -966.50375096


--------------------------------------------------------------------------------------------------------




--------------------------------------- Iteration      1(  18)  ---------------------------------------


    POTLOK:  cpu time      0.1885: real time      0.1904
    SETDIJ:  cpu time      0.0162: real time      0.0163
     EDDAV:  cpu time     21.0469: real time     21.1747
       DOS:  cpu time      0.0008: real time      0.0009
    CHARGE:  cpu time      0.2271: real time      0.2282
    MIXING:  cpu time      0.0163: real time      0.0164
    --------------------------------------------
      LOOP:  cpu time     21.4958: real time     21.6267

 eigenvalue-minimisations  :  5360
 total energy-change (2. order) : 0.7621114E-05  (-0.3469818E-05)
 number of electron     792.0002622 magnetization
 augmentation part      211.2339488 magnetization

 Broyden mixing:
  rms(total) = 0.22170E-02    rms(broyden)= 0.22167E-02
  rms(prec ) = 0.26922E-02
  weight for this iteration     100.00

 eigenvalues of (default mixing * dielectric matrix)
  average eigenvalue GAMMA=   1.1656
  2.9172  2.4529  1.7571  1.3625  1.0856  0.8849  0.8849  0.7498  0.7498  0.6456
  0.5786  0.5786  0.5050

 Free energy of the ion-electron system (eV)
  ---------------------------------------------------
  alpha Z        PSCENC =      3563.47650690
  Ewald energy   TEWEN  =    -48603.80794548
  -Hartree energ DENC   =    -18725.19340495
  -exchange      EXHF   =         0.00000000
  -V(xc)+E(xc)   XCENC  =      3312.65538362
  PAW double counting   =     89164.82049207   -89466.21824676
[...]
      7.58456      3.79228      1.99678    -0.00000 -0.04978 -2.88324 ( -0.63468  6.00000)
      7.58456      7.58456      1.99678    -0.00001  0.00031 -2.89865 ( -0.63479  6.00000)
      0.00000      1.89614      0.40437    -0.00093 -0.00032 -2.88966 ( -0.63481  6.00000)
      0.00000      5.68842      0.40437     0.00078 -0.00481 -2.89458 ( -0.63480  6.00000)
      0.00000      9.48070      0.40437     0.00080  0.00507 -2.89519 ( -0.63482  6.00000)
      3.79228      1.89614      0.40437     0.00091 -0.00032 -2.88972 ( -0.63483  6.00000)
      3.79228      5.68842      0.40437    -0.00084 -0.00481 -2.89518 ( -0.63481  6.00000)
      3.79228      9.48070      0.40437    -0.00081  0.00514 -2.89525 ( -0.63484  6.00000)
      7.58456      1.89614      0.40437     0.00000 -0.00035 -2.87293 ( -0.63389  6.00000)
      7.58456      5.68842      0.40437     0.00004 -0.01615 -2.90074 ( -0.63478  6.00000)
      7.58456      9.48070      0.40437     0.00000  0.01646 -2.90082 ( -0.63481  6.00000)
      1.89614      1.89614      2.80551    -0.00031  0.00001 -2.89400 ( -0.63480  6.00000)
      1.89614      5.68842      2.80551    -0.00025 -0.00177 -2.89477 ( -0.63483  6.00000)
      1.89614      9.48070      2.80551    -0.00029  0.00179 -2.89481 ( -0.63484  6.00000)
      5.68842      1.89614      2.80551     0.09143  0.00005 -2.90066 ( -0.63448  6.00000)
      5.68842      5.68842      2.80551    -0.00113 -0.00149 -2.89470 ( -0.63485  6.00000)
      5.68842      9.48070      2.80551    -0.00115  0.00152 -2.89527 ( -0.63486  6.00000)
      9.48070      1.89614      2.80551    -0.09110  0.00004 -2.90078 ( -0.63452  6.00000)
      9.48070      5.68842      2.80551     0.00140 -0.00151 -2.89530 ( -0.63487  6.00000)
      9.48070      9.48070      2.80551     0.00145  0.00153 -2.89535 ( -0.63488  6.00000)
 -----------------------------------------------------------------------------------------
    total drift (improves with k-points):  -0.00051  0.00015 -0.07210




--------------------------------------------------------------------------------------------------------




 MACROSCOPIC STATIC DIELECTRIC TENSOR (including local field effects in DFT)
 ------------------------------------------------------
           6.984297     0.000001    -0.000002
           0.000001     6.965136    -0.000002
           0.000003    -0.000005     6.368942
 ------------------------------------------------------



--------------------------------------------------------------------------------------------------------




--------------------------------------------------------------------------------------------------------




 MACROSCOPIC STATIC DIELECTRIC TENSOR (including local field effects in DFT)
 ------------------------------------------------------
           6.984297     0.000001    -0.000002
           0.000001     6.965136    -0.000002
           0.000003    -0.000005     6.368942
 ------------------------------------------------------


 PIEZOELECTRIC TENSOR (including local field effects)  for field in x, y, z        (e  Angst)
          XX          YY          ZZ          XY          YZ          ZX
  --------------------------------------------------------------------------------
  x    -0.00336     0.00157     0.00153     0.00043     0.00002    -0.57528
  y    -0.00100     0.00144     0.00005    -0.00002     0.28956     0.00020
  z    -0.44794    -0.63529     0.17995     0.00049     0.00010     0.00013

 PIEZOELECTRIC TENSOR (including local field effects)  for field in x, y, z        (C/m^2)
          XX          YY          ZZ          XY          YZ          ZX
  --------------------------------------------------------------------------------
  x    -0.00004     0.00002     0.00002     0.00001     0.00000    -0.00741
  y    -0.00001     0.00002     0.00000    -0.00000     0.00373     0.00000
  z    -0.00577    -0.00819     0.00232     0.00001     0.00000     0.00000

 BORN EFFECTIVE CHARGES (including local field effects) (in |e|, cummulative output)
 ---------------------------------------------------------------------------------
 ion    1
    1     6.68701     0.00012     0.00024
    2     0.00006     6.65257    -0.00029
    3     0.00017    -0.00016     5.78654
 ion    2
    1     6.67631     0.00001    -0.00015
    2     0.00007     6.65697     0.00377
    3    -0.00025     0.00608     5.78401
 ion    3
    1     6.67653    -0.00003     0.00027
    2    -0.00010     6.65830    -0.00354
    3     0.00018    -0.00596     5.78470
 ion    4
    1     7.14624    -0.00005     0.07676
    2     0.00002     6.64223     0.00011
    3     0.15007     0.00020     5.73089
 ion    5
    1     6.62425    -0.05964     0.01849
    2    -0.00124     6.65568     0.00449
    3     0.00110    -0.03233     5.78573
 ion    6
    1     6.62719     0.05974     0.01850
    2     0.00135     6.65975    -0.00465
    3     0.00112     0.03206     5.78579
 ion    7
    1     7.14613    -0.00003    -0.07698
    2    -0.00003     6.64245    -0.00023
    3    -0.15050    -0.00019     5.73156
 ion    8
    1     6.62826     0.05974    -0.01844
    2     0.00126     6.65865     0.00449
    3    -0.00090    -0.03238     5.78581
 ion    9
    1     6.62856    -0.05962    -0.01882
    2    -0.00116     6.66001    -0.00419
    3    -0.00131     0.03253     5.78650
 ion   10
    1     6.68042    -0.00001     0.00019
    2     0.00001     6.66226     0.00704
    3     0.00024    -0.00181     5.78966
 ion   11
    1     6.68060    -0.00005    -0.00022
    2    -0.00008     6.66366    -0.00734
    3    -0.00017     0.00165     5.79036
 ion   12
    1     6.66790     0.00010    -0.00027
    2     0.00005     6.66387     0.00029
    3    -0.00018     0.00022     5.78632
 ion   13
    1     6.61280     0.04628    -0.05203
    2     0.00358     6.69415     0.02603
    3     0.01232     0.00235     5.77056
 ion   14
    1     6.61581    -0.04629    -0.05203
    2    -0.00362     6.69821    -0.02592
    3     0.01235    -0.00211     5.77061
 ion   15
    1     6.64433    -0.00003    -0.01081
    2     0.00004     6.66814    -0.00012
    3     0.00378    -0.00021     5.77448
 ion   16
    1     6.61684    -0.04637     0.05197
    2    -0.00362     6.69715     0.02605
    3    -0.01257     0.00232     5.77061
 ion   17
    1     6.61709     0.04641     0.05235
    2     0.00367     6.69847    -0.02633
    3    -0.01216    -0.00248     5.77128
 ion   18
    1     6.64568    -0.00007     0.01114
    2    -0.00008     6.66835     0.00028
    3    -0.00360     0.00019     5.77514
 ion   19
    1     6.68770    -0.00433     0.00094
    2     0.00224     6.64860     0.00838
    3    -0.00984    -0.00328     5.77826
 ion   20
    1     6.69070     0.00429     0.00096
    2    -0.00229     6.65267    -0.00847
    3    -0.00987     0.00311     5.77833
 ion   21
    1     6.67233     0.00002    -0.00053
    2    -0.00001     6.66249     0.00010
    3    -0.00286     0.00024     5.78780
 ion   22
    1     6.69178     0.00429    -0.00080
    2    -0.00223     6.65160     0.00835
    3     0.01009    -0.00333     5.77832
 ion   23
    1     6.69205    -0.00430    -0.00116
    2     0.00230     6.65289    -0.00808
    3     0.00968     0.00351     5.77901
 ion   24
    1     6.67377    -0.00012     0.00026
    2    -0.00008     6.66272    -0.00030
    3     0.00267    -0.00019     5.78849
 ion   25
    1     6.66372    -0.00004    -0.00010
    2     0.00003     6.56474     0.04676
    3    -0.00020     0.02665     5.76388
 ion   26
    1     6.66388    -0.00007     0.00033
    2    -0.00010     6.56609    -0.04653
    3     0.00019    -0.02652     5.76457
 ion   27
    1     6.65953     0.00005     0.00030
    2     0.00004     6.65546    -0.00029
    3     0.00019    -0.00016     5.79320
 ion   28
    1     6.72300    -0.00001     0.00528
    2    -0.00002     6.65954    -0.00013
    3     0.06385    -0.00024     5.79328
 ion   29
    1     6.67741     0.00192    -0.00137
    2     0.00255     6.66290    -0.00060
    3     0.00135     0.00670     5.79802
 ion   30
    1     6.68043    -0.00196    -0.00136
    2    -0.00254     6.66700     0.00069
    3     0.00133    -0.00648     5.79808
 ion   31
    1     6.72432    -0.00008    -0.00509
    2    -0.00010     6.65978     0.00025
    3    -0.06371     0.00016     5.79394
 ion   32
    1     6.68154    -0.00189     0.00123
    2    -0.00257     6.66590    -0.00062
    3    -0.00158     0.00672     5.79807
 ion   33
    1     6.68174     0.00199     0.00162
    2     0.00264     6.66723     0.00028
    3    -0.00116    -0.00690     5.79877
 ion   34
    1     6.51336     0.00006    -0.00024
    2     0.00008     6.74835     0.00026
    3    -0.00025     0.00015     5.41723
 ion   35
    1     6.65798    -0.00001     0.00009
    2    -0.00000     6.69428    -0.00293
    3     0.00024     0.00259     5.81471
 ion   36
    1     6.65822    -0.00009    -0.00031
    2    -0.00010     6.69567     0.00265
    3    -0.00019    -0.00277     5.81540
 ion   37
    1    -5.64179     0.00000     0.00573
    2    -0.00003    -1.13514    -0.00001
    3     0.01067    -0.00005    -2.94851
 ion   38
    1    -5.54994    -0.00323     0.00018
    2    -0.00520    -1.11898     0.00033
    3     0.00899     0.00025    -2.90103
 ion   39
    1    -5.55026     0.00321     0.00017
    2     0.00518    -1.12023    -0.00028
    3     0.00896    -0.00022    -2.90162
 ion   40
    1    -5.64058     0.00015    -0.00579
    2     0.00008    -1.13520     0.00002
    3    -0.01094    -0.00000    -2.94865
 ion   41
    1    -5.54905     0.00320    -0.00018
    2     0.00511    -1.11912     0.00035
    3    -0.00919     0.00021    -2.90164
 ion   42
    1    -5.54913    -0.00335    -0.00024
    2    -0.00526    -1.12026    -0.00032
    3    -0.00926    -0.00021    -2.90171
 ion   43
    1    -6.08116    -0.00015    -0.00002
    2    -0.00010    -1.17009    -0.00009
    3     0.00020     0.00002    -2.35403
 ion   44
    1    -5.47802     0.00004     0.00009
    2     0.00001    -1.11957     0.00141
    3     0.00028     0.00309    -2.90933
 ion   45
    1    -5.47822     0.00009     0.00011
    2     0.00001    -1.12077    -0.00137
    3     0.00033    -0.00308    -2.90940
 ion   46
    1    -1.12524    -0.00007    -0.00004
    2    -0.00014    -5.53994     0.00008
    3     0.00001     0.00029    -2.89782
 ion   47
    1    -1.12558     0.00001     0.00002
    2     0.00005    -5.53963    -0.00089
    3    -0.00004    -0.00303    -2.89375
 ion   48
    1    -1.12563     0.00007    -0.00001
    2     0.00010    -5.53847     0.00082
    3    -0.00000     0.00271    -2.89383
 ion   49
    1    -1.14773    -0.00000     0.10303
    2     0.00001    -5.59019     0.00008
    3    -0.00448     0.00026    -2.88332
 ion   50
    1    -1.11883     0.01943     0.00775
    2    -0.00004    -5.54176    -0.00200
    3    -0.00167    -0.00538    -2.88386
 ion   51
    1    -1.11896    -0.01943     0.00777
    2     0.00008    -5.54085     0.00195
    3    -0.00171     0.00510    -2.88447
 ion   52
    1    -1.14880     0.00009    -0.10301
    2     0.00014    -5.59037     0.00006
    3     0.00452     0.00028    -2.88346
 ion   53
    1    -1.12010    -0.01946    -0.00772
    2    -0.00003    -5.54206    -0.00199
    3     0.00173    -0.00539    -2.88443
 ion   54
    1    -1.12012     0.01938    -0.00776
    2    -0.00017    -5.54102     0.00187
    3     0.00168     0.00507    -2.88453
 ion   55
    1    -1.12587     0.00000     0.00002
    2     0.00005    -5.53293    -0.00450
    3     0.00004     0.01032    -2.89944
 ion   56
    1    -1.12593     0.00003    -0.00001
    2     0.00008    -5.53194     0.00453
    3     0.00001    -0.01003    -2.89954
 ion   57
    1    -1.12561    -0.00009    -0.00002
    2    -0.00015    -5.53887    -0.00008
    3     0.00004    -0.00030    -2.89367
 ion   58
    1    -1.14241    -0.12551     0.02770
    2     0.01180    -5.51853    -0.02997
    3    -0.01378    -0.04698    -2.89180
 ion   59
    1    -1.14254     0.12545     0.02770
    2    -0.01184    -5.51756     0.03005
    3    -0.01379     0.04730    -2.89240
 ion   60
    1    -1.12011    -0.00003     0.00442
    2    -0.00007    -5.54668    -0.00007
    3    -0.00008    -0.00028    -2.88750
 ion   61
    1    -1.14364     0.12546    -0.02772
    2    -0.01188    -5.51889    -0.03007
    3     0.01375    -0.04704    -2.89239
 ion   62
    1    -1.14366    -0.12559    -0.02769
    2     0.01173    -5.51776     0.03010
    3     0.01380     0.04738    -2.89249
 ion   63
    1    -1.12123     0.00007    -0.00445
    2     0.00019    -5.54671    -0.00011
    3     0.00009    -0.00032    -2.88756
 ion   64
    1    -5.55187     0.00303    -0.00068
    2     0.00653    -1.12343     0.00085
    3     0.00212    -0.00183    -2.89305
 ion   65
    1    -5.55217    -0.00301    -0.00070
    2    -0.00652    -1.12468    -0.00083
    3     0.00213     0.00174    -2.89362
 ion   66
    1    -5.54257     0.00001    -0.00008
    2    -0.00002    -1.12299     0.00003
    3     0.00178     0.00003    -2.89379
 ion   67
    1    -5.55096    -0.00301     0.00067
    2    -0.00655    -1.12358     0.00084
    3    -0.00183    -0.00180    -2.89367
 ion   68
    1    -5.55112     0.00292     0.00070
    2     0.00650    -1.12469    -0.00084
    3    -0.00182     0.00179    -2.89372
 ion   69
    1    -5.54147     0.00012     0.00007
    2     0.00007    -1.12300     0.00005
    3    -0.00148    -0.00000    -2.89389
 ion   70
    1    -5.46023     0.00000    -0.00009
    2     0.00004    -1.11774     0.00251
    3    -0.00031    -0.00931    -2.89017
 ion   71
    1    -5.46041     0.00017    -0.00018
    2     0.00005    -1.11894    -0.00252
    3    -0.00032     0.00930    -2.89024
 ion   72
    1    -5.50865    -0.00009    -0.00011
    2    -0.00006    -1.12303    -0.00000
    3    -0.00033    -0.00000    -2.89341
 ion   73
    1    -5.55624    -0.00001     0.00008
    2     0.00001    -1.12147     0.00032
    3     0.00027     0.00012    -2.88984
 ion   74
    1    -5.55640     0.00017     0.00007
    2     0.00010    -1.12262    -0.00027
    3     0.00033    -0.00011    -2.88992
 ion   75
    1    -5.54719    -0.00014     0.00003
    2    -0.00007    -1.12430    -0.00005
    3     0.00034    -0.00001    -2.89241
 ion   76
    1    -5.55171    -0.00405     0.00189
    2     0.00827    -1.12129     0.00134
    3    -0.00262    -0.00369    -2.88246
 ion   77
    1    -5.55206     0.00403     0.00194
    2    -0.00826    -1.12255    -0.00131
    3    -0.00264     0.00373    -2.88303
 ion   78
    1    -5.54189     0.00005     0.00058
    2     0.00003    -1.12529    -0.00001
    3     0.00028    -0.00004    -2.88874
 ion   79
    1    -5.55080     0.00416    -0.00198
    2    -0.00829    -1.12140     0.00137
    3     0.00237    -0.00366    -2.88307
 ion   80
    1    -5.55093    -0.00425    -0.00209
    2     0.00823    -1.12256    -0.00137
    3     0.00237     0.00368    -2.88313
 ion   81
    1    -5.54084     0.00010    -0.00069
    2     0.00007    -1.12534     0.00001
    3    -0.00059     0.00001    -2.88882
 ion   82
    1    -1.13346    -0.00515     0.00086
    2     0.00315    -5.54285    -0.00854
    3    -0.00183     0.01279    -2.88490
 ion   83
    1    -1.13357     0.00513     0.00090
    2    -0.00310    -5.54194     0.00849
    3    -0.00181    -0.01309    -2.88551
 ion   84
    1    -1.12618     0.00001     0.00062
    2    -0.00003    -5.53992     0.00007
    3     0.00025     0.00029    -2.89426
 ion   85
    1    -1.13472     0.00513    -0.00083
    2    -0.00318    -5.54318    -0.00853
    3     0.00186     0.01281    -2.88546
 ion   86
    1    -1.13472    -0.00521    -0.00089
    2     0.00302    -5.54212     0.00848
    3     0.00182    -0.01313    -2.88555
 ion   87
    1    -1.12733     0.00007    -0.00058
    2     0.00014    -5.54010     0.00011
    3    -0.00022     0.00031    -2.89434
 ion   88
    1    -1.10622     0.00001    -0.00003
    2     0.00002    -5.59280    -0.08136
    3    -0.00003     0.04958    -2.88249
 ion   89
    1    -1.10625     0.00009    -0.00002
    2     0.00013    -5.59170     0.08128
    3     0.00000    -0.04978    -2.88257
 ion   90
    1    -1.11631    -0.00008    -0.00001
    2    -0.00012    -5.54838     0.00007
    3    -0.00000     0.00031    -2.89798
 ion   91
    1    -1.13290     0.00001    -0.00163
    2    -0.00003    -5.52421    -0.00005
    3    -0.00093    -0.00032    -2.88899
 ion   92
    1    -1.12616    -0.00168    -0.00099
    2    -0.00021    -5.53879     0.00076
    3     0.00079    -0.00481    -2.89391
 ion   93
    1    -1.12629     0.00171    -0.00100
    2     0.00025    -5.53789    -0.00068
    3     0.00080     0.00506    -2.89453
 ion   94
    1    -1.13402     0.00008     0.00165
    2     0.00017    -5.52439    -0.00010
    3     0.00092    -0.00032    -2.88905
 ion   95
    1    -1.12746     0.00176     0.00102
    2     0.00022    -5.53912     0.00074
    3    -0.00083    -0.00481    -2.89451
 ion   96
    1    -1.12746    -0.00175     0.00102
    2    -0.00035    -5.53805    -0.00059
    3    -0.00081     0.00514    -2.89458
 ion   97
    1    -1.07343    -0.00004     0.00008
    2    -0.00012    -5.38258     0.00002
    3     0.00001    -0.00035    -2.87226
 ion   98
    1    -1.11830    -0.00001     0.00002
    2     0.00003    -5.52932     0.00007
    3     0.00004    -0.01615    -2.90007
 ion   99
    1    -1.11836     0.00009     0.00002
    2     0.00011    -5.52822     0.00001
    3     0.00001     0.01646    -2.90016
 ion  100
    1    -5.54258    -0.00016    -0.00004
    2    -0.00004    -1.11660     0.00001
    3    -0.00030     0.00001    -2.89333
 ion  101
    1    -5.55086     0.00003    -0.00002
    2     0.00003    -1.12463     0.00010
    3    -0.00025    -0.00177    -2.89410
 ion  102
    1    -5.55104     0.00010    -0.00005
    2     0.00005    -1.12573    -0.00009
    3    -0.00028     0.00179    -2.89414
 ion  103
    1    -5.58049    -0.00003    -0.01018
    2     0.00002    -1.11403     0.00003
    3     0.09144     0.00004    -2.89999
 ion  104
    1    -5.54542     0.00347    -0.00088
    2    -0.00004    -1.12825     0.00046
    3    -0.00113    -0.00150    -2.89403
 ion  105
    1    -5.54570    -0.00348    -0.00091
    2     0.00006    -1.12951    -0.00046
    3    -0.00114     0.00152    -2.89460
 ion  106
    1    -5.57937     0.00014     0.01024
    2     0.00007    -1.11407    -0.00000
    3    -0.09109     0.00003    -2.90011
 ion  107
    1    -5.54449    -0.00351     0.00100
    2     0.00003    -1.12838     0.00047
    3     0.00141    -0.00151    -2.89463
 ion  108
    1    -5.54469     0.00339     0.00101
    2    -0.00010    -1.12954    -0.00049
    3     0.00146     0.00153    -2.89468


--------------------------------------------------------------------------------------------------------


     LOOP+:  cpu time   1880.0693: real time   1924.3082
    4ORBIT:  cpu time      0.0000: real time      0.0000

 total amount of memory used by VASP MPI-rank0   266725. kBytes
=======================================================================

   base      :      30000. kBytes
   nonlr-proj:      19556. kBytes
   fftplans  :      10927. kBytes
   grid      :      23181. kBytes
   one-center:       1679. kBytes
   wavefun   :     181382. kBytes



 General timing and accounting informations for this job:
 ========================================================

                  Total CPU time used (sec):     1891.548
                            User time (sec):     1837.341
                          System time (sec):       54.207
                         Elapsed time (sec):     1944.359

                   Maximum memory used (kb):     1095524.
                   Average memory used (kb):          N/A

                          Minor page faults:       825032
                          Major page faults:           30
                 Voluntary context switches:       132633
