 vasp.6.3.0 20Jan22 (build Mar 29 2022 16:24:06) complex

 executed on             Bridges2 date 2023.01.12  19:12:41
 running on   32 total cores
 distrk:  each k-point on    4 cores,    8 groups
 distr:  one band on NCORE=   1 cores,    4 groups


--------------------------------------------------------------------------------------------------------


 INCAR:
   ICHARG = 2
   LWAVE = .FALSE.
   LCHARG = .FALSE.
   LVTOT = .FALSE.
   NCORE = 1
   KPAR = 8
   EDIFF = 1E-7
   NELM = 80
   PREC = Normal
   LREAL = Auto
   NELMIN = 4
   ENCUT = 400.0 eV
   ISPIN = 1
   ISMEAR = 0
   SIGMA = 0.10
   NSW = 0
   LEPSILON = .TRUE.
   LPEAD = .TRUE.
   ISYM = 0

 POTCAR:    PAW_PBE Ti_pv 07Sep2000
 POTCAR:    PAW_PBE O 08Apr2002
 -----------------------------------------------------------------------------
|                                                                             |
|           W    W    AA    RRRRR   N    N  II  N    N   GGGG   !!!           |
|           W    W   A  A   R    R  NN   N  II  NN   N  G    G  !!!           |
|           W    W  A    A  R    R  N N  N  II  N N  N  G       !!!           |
|           W WW W  AAAAAA  RRRRR   N  N N  II  N  N N  G  GGG   !            |
|           WW  WW  A    A  R   R   N   NN  II  N   NN  G    G                |
|           W    W  A    A  R    R  N    N  II  N    N   GGGG   !!!           |
|                                                                             |
|     For optimal performance we recommend to set                             |
|       NCORE = 2 up to number-of-cores-per-socket                            |
|     NCORE specifies how many cores store one orbital (NPAR=cpu/NCORE).      |
|     This setting can greatly improve the performance of VASP for DFT.       |
|     The default, NCORE=1 might be grossly inefficient on modern             |
|     multi-core architectures or massively parallel machines. Do your        |
|     own testing! More info at https://www.vasp.at/wiki/index.php/NCORE      |
|     Unfortunately you need to use the default for GW and RPA                |
|     calculations (for HF NCORE is supported but not extensively tested      |
|     yet).                                                                   |
|                                                                             |
 -----------------------------------------------------------------------------

 POTCAR:    PAW_PBE Ti_pv 07Sep2000
   VRHFIN =Ti: d3 s1
   LEXCH  = PE
   EATOM  =  1042.5995 eV,   76.6289 Ry

   TITEL  = PAW_PBE Ti_pv 07Sep2000
   LULTRA =        F    use ultrasoft PP ?
   IUNSCR =        1    unscreen: 0-lin 1-nonlin 2-no
   RPACOR =    2.200    partial core radius
   POMASS =   47.880; ZVAL   =   10.000    mass and valenz
   RCORE  =    2.500    outmost cutoff radius
   RWIGS  =    2.500; RWIGS  =    1.323    wigner-seitz radius (au A)
   ENMAX  =  222.335; ENMIN  =  166.751 eV
   RCLOC  =    1.701    cutoff for local pot
   LCOR   =        T    correct aug charges
   LPAW   =        T    paw PP
   EAUG   =  482.848
   DEXC   =    0.000
   RMAX   =    2.564    core radius for proj-oper
   RAUG   =    1.300    factor for augmentation sphere
   RDEP   =    2.538    radius for radial grids
   RDEPT  =    1.952    core radius for aug-charge

   Atomic configuration
    8 entries
     n  l   j            E        occ.
     1  0  0.50     -4865.3608   2.0000
     2  0  0.50      -533.1368   2.0000
     2  1  1.50      -440.5031   6.0000
     3  0  0.50       -59.3186   2.0000
     3  1  1.50       -35.7012   6.0000
     3  2  2.50        -1.9157   3.0000
     4  0  0.50        -3.7291   1.0000
     4  3  2.50        -1.3606   0.0000
   Description
     l       E           TYP  RCUT    TYP  RCUT
     1    -35.7012140     23  2.300
     1     -1.3605826     23  2.300
     2     -1.9156996     23  2.500
     2     -0.4063033     23  2.500
     0     -3.7290856     23  2.500
     0     20.4087390     23  2.500
  local pseudopotential read in
  partial core-charges read in
  partial kinetic energy density read in
  atomic valenz-charges read in
  non local Contribution for L=           1  read in
    real space projection operators read in
  non local Contribution for L=           1  read in
    real space projection operators read in
  non local Contribution for L=           2  read in
    real space projection operators read in
  non local Contribution for L=           2  read in
    real space projection operators read in
  non local Contribution for L=           0  read in
    real space projection operators read in
  non local Contribution for L=           0  read in
    real space projection operators read in
    PAW grid and wavefunctions read in

   number of l-projection  operators is LMAX  =           6
   number of lm-projection operators is LMMAX =          18

 POTCAR:    PAW_PBE O 08Apr2002
   VRHFIN =O: s2p4
   LEXCH  = PE
   EATOM  =   432.3788 eV,   31.7789 Ry

   TITEL  = PAW_PBE O 08Apr2002
   LULTRA =        F    use ultrasoft PP ?
   IUNSCR =        1    unscreen: 0-lin 1-nonlin 2-no
   RPACOR =    1.200    partial core radius
   POMASS =   16.000; ZVAL   =    6.000    mass and valenz
   RCORE  =    1.520    outmost cutoff radius
   RWIGS  =    1.550; RWIGS  =    0.820    wigner-seitz radius (au A)
   ENMAX  =  400.000; ENMIN  =  300.000 eV
   ICORE  =        2    local potential
   LCOR   =        T    correct aug charges
   LPAW   =        T    paw PP
   EAUG   =  605.392
   DEXC   =    0.000
   RMAX   =    1.553    core radius for proj-oper
   RAUG   =    1.300    factor for augmentation sphere
   RDEP   =    1.550    radius for radial grids
   RDEPT  =    1.329    core radius for aug-charge

   Atomic configuration
    4 entries
     n  l   j            E        occ.
     1  0  0.50      -514.6923   2.0000
     2  0  0.50       -23.9615   2.0000
     2  1  0.50        -9.0305   4.0000
     3  2  1.50        -9.5241   0.0000
   Description
     l       E           TYP  RCUT    TYP  RCUT
     0    -23.9615318     23  1.200
     0     -9.5240782     23  1.200
     1     -9.0304911     23  1.520
     1      8.1634956     23  1.520
     2     -9.5240782      7  1.500
  local pseudopotential read in
  partial core-charges read in
  partial kinetic energy density read in
  kinetic energy density of atom read in
  atomic valenz-charges read in
  non local Contribution for L=           0  read in
    real space projection operators read in
  non local Contribution for L=           0  read in
    real space projection operators read in
  non local Contribution for L=           1  read in
    real space projection operators read in
  non local Contribution for L=           1  read in
    real space projection operators read in
    PAW grid and wavefunctions read in

   number of l-projection  operators is LMAX  =           4
   number of lm-projection operators is LMMAX =           8

 Optimization of the real space projectors (new method)

 maximal supplied QI-value         = 15.12
 optimisation between [QCUT,QGAM] = [ 10.13, 20.41] = [ 28.73,116.64] Ry
 Optimized for a Real-space Cutoff    1.51 Angstroem

   l    n(q)    QCUT    max X(q) W(low)/X(q) W(high)/X(q)  e(spline)
   1      9    10.129     4.216    0.12E-04    0.72E-04    0.60E-07
   1      9    10.129     5.422    0.84E-04    0.21E-03    0.15E-06
   2      8    10.129    72.084    0.33E-03    0.35E-04    0.17E-06
   2      8    10.129    65.965    0.33E-03    0.37E-04    0.17E-06
   0      9    10.129    41.531    0.17E-03    0.19E-03    0.81E-07
   0      9    10.129    16.290    0.12E-03    0.14E-03    0.64E-07
 Optimization of the real space projectors (new method)

 maximal supplied QI-value         = 24.76
 optimisation between [QCUT,QGAM] = [ 10.15, 20.30] = [ 28.85,115.39] Ry
 Optimized for a Real-space Cutoff    1.38 Angstroem

   l    n(q)    QCUT    max X(q) W(low)/X(q) W(high)/X(q)  e(spline)
   0      8    10.150    20.381    0.22E-03    0.32E-03    0.29E-06
   0      8    10.150    15.268    0.23E-03    0.35E-03    0.30E-06
   1      8    10.150     5.964    0.46E-03    0.53E-03    0.21E-06
   1      8    10.150     5.382    0.38E-03    0.45E-03    0.19E-06
  PAW_PBE Ti_pv 07Sep2000               :
 energy of atom  1       EATOM=-1042.5995
 kinetic energy error for atom=    0.0037 (will be added to EATOM!!)
  PAW_PBE O 08Apr2002                   :
 energy of atom  2       EATOM= -432.3788
 kinetic energy error for atom=    0.1156 (will be added to EATOM!!)


 POSCAR: Ti4 O8
  positions in cartesian coordinates
  No initial velocities read in
 exchange correlation table for  LEXCH =        8
   RHO(1)=    0.500       N(1)  =     2000
   RHO(2)=  100.500       N(2)  =     4000



--------------------------------------------------------------------------------------------------------


 ion  position               nearest neighbor table
   1  0.167  0.167  0.500-  56 1.94  55 1.94  40 1.94  37 1.94 100 2.00  46 2.00  31 3.06  28 3.06
                            11 3.06  10 3.06
   2  0.167  0.500  0.500-  56 1.94  41 1.94  38 1.94  57 1.94 101 2.00  47 2.00  11 3.06  32 3.06
                            29 3.06  12 3.06
   3  0.167  0.833  0.500-  57 1.94  42 1.94  39 1.94  55 1.94 102 2.00  48 2.00  12 3.06  33 3.06
                            30 3.06  10 3.06
   4  0.500  0.167  0.500-  40 1.94  59 1.94  58 1.94  43 1.94 103 2.00  49 2.00  31 3.06  14 3.06
                            13 3.06  34 3.06
   5  0.500  0.500  0.500-  59 1.94  41 1.94  60 1.94  44 1.94 104 2.00  50 2.00  32 3.06  14 3.06
                            35 3.06  15 3.06
   6  0.500  0.833  0.500-  60 1.94  42 1.94  58 1.94  45 1.94 105 2.00  51 2.00  15 3.06  33 3.06
                            13 3.06  36 3.06
   7  0.833  0.167  0.500-  62 1.94  61 1.94  37 1.94  43 1.94 106 2.00  52 2.00  34 3.06  17 3.06
                            16 3.06  28 3.06
   8  0.833  0.500  0.500-  44 1.94  62 1.94  63 1.94  38 1.94 107 2.00  53 2.00  35 3.06  17 3.06
                            29 3.06  18 3.06
   9  0.833  0.833  0.500-  63 1.94  45 1.94  61 1.94  39 1.94 108 2.00  54 2.00  36 3.06  18 3.06
                            30 3.06  16 3.06
  10  0.167  0.000  0.750-  67 1.94  64 1.94  46 1.94  48 1.94  73 2.00  55 2.00  22 3.06  19 3.06
                             1 3.06   3 3.06
  11  0.167  0.333  0.750-  47 1.94  46 1.94  68 1.94  65 1.94  74 2.00  56 2.00   2 3.06  23 3.06
                            20 3.06   1 3.06
  12  0.167  0.667  0.750-  48 1.94  69 1.94  66 1.94  47 1.94  75 2.00  57 2.00   3 3.06  24 3.06
                            21 3.06   2 3.06
  13  0.500  0.000  0.750-  67 1.94  49 1.94  51 1.94  70 1.94  76 2.00  58 2.00  22 3.06   4 3.06
                            25 3.06   6 3.06
  14  0.500  0.333  0.750-  50 1.94  68 1.94  49 1.94  71 1.94  77 2.00  59 2.00  23 3.06   5 3.06
                             4 3.06  26 3.06
  15  0.500  0.667  0.750-  51 1.94  69 1.94  50 1.94  72 1.94  78 2.00  60 2.00   6 3.06  24 3.06
                            27 3.06   5 3.06
  16  0.833  0.000  0.750-  70 1.94  52 1.94  64 1.94  54 1.94  79 2.00  61 2.00  25 3.06   7 3.06
                            19 3.06   9 3.06
  17  0.833  0.333  0.750-  71 1.94  53 1.94  52 1.94  65 1.94  80 2.00  62 2.00  26 3.06   8 3.06
                             7 3.06  20 3.06
  18  0.833  0.667  0.750-  54 1.94  72 1.94  66 1.94  53 1.94  81 2.00  63 2.00  27 3.06   9 3.06
                            21 3.06   8 3.06
  19  0.000  0.000  0.000-  73 1.94  91 1.94  79 1.94  93 1.94  82 2.00  64 2.00  10 3.06  28 3.06
                            16 3.06  30 3.06
  20  0.000  0.333  0.000-  92 1.94  74 1.94  91 1.94  80 1.94  83 2.00  65 2.00  29 3.06  11 3.06
                            28 3.06  17 3.06
  21  0.000  0.667  0.000-  93 1.94  75 1.94  81 1.94  92 1.94  84 2.00  66 2.00  30 3.06  12 3.06
                            18 3.06  29 3.06
  22  0.333  0.000  0.000-  76 1.94  73 1.94  94 1.94  96 1.94  85 2.00  67 2.00  13 3.06  10 3.06
                            31 3.06  33 3.06
  23  0.333  0.333  0.000-  77 1.94  95 1.94  74 1.94  94 1.94  86 2.00  68 2.00  14 3.06  32 3.06
                            11 3.06  31 3.06
  24  0.333  0.667  0.000-  96 1.94  78 1.94  75 1.94  95 1.94  87 2.00  69 2.00  33 3.06  15 3.06
                            12 3.06  32 3.06
  25  0.667  0.000  0.000-  79 1.94  97 1.94  76 1.94  99 1.94  88 2.00  70 2.00  16 3.06  34 3.06
                            13 3.06  36 3.06
  26  0.667  0.333  0.000-  80 1.94  98 1.94  97 1.94  77 1.94  89 2.00  71 2.00  17 3.06  35 3.06
                            34 3.06  14 3.06
  27  0.667  0.667  0.000-  81 1.94  99 1.94  78 1.94  98 1.94  90 2.00  72 2.00  18 3.06  36 3.06
                            15 3.06  35 3.06
  28  0.000  0.167  0.250-  83 1.94  82 1.94 100 1.94 106 1.94  37 2.00  91 2.00   1 3.06  20 3.06
                            19 3.06   7 3.06
  29  0.000  0.500  0.250-  83 1.94 101 1.94  84 1.94 107 1.94  38 2.00  92 2.00  20 3.06   2 3.06
                             8 3.06  21 3.06
  30  0.000  0.833  0.250-  84 1.94 102 1.94  82 1.94 108 1.94  39 2.00  93 2.00  21 3.06   3 3.06
                             9 3.06  19 3.06
  31  0.333  0.167  0.250- 103 1.94  86 1.94  85 1.94 100 1.94  40 2.00  94 2.00   4 3.06   1 3.06
                            23 3.06  22 3.06
  32  0.333  0.500  0.250-  86 1.94 104 1.94 101 1.94  87 1.94  41 2.00  95 2.00   5 3.06  23 3.06
                             2 3.06  24 3.06
  33  0.333  0.833  0.250-  87 1.94 105 1.94 102 1.94  85 1.94  42 2.00  96 2.00  24 3.06   6 3.06
                             3 3.06  22 3.06
  34  0.667  0.167  0.250- 106 1.94  89 1.94  88 1.94 103 1.94  97 2.00  43 2.00   7 3.06  26 3.06
                            25 3.06   4 3.06
  35  0.667  0.500  0.250- 107 1.94  89 1.94  90 1.94 104 1.94  44 2.00  98 2.00   8 3.06  26 3.06
                             5 3.06  27 3.06
  36  0.667  0.833  0.250-  90 1.94 108 1.94  88 1.94 105 1.94  45 2.00  99 2.00   9 3.06  27 3.06
                            25 3.06   6 3.06
  37  0.000  0.167  0.458-   1 1.94   7 1.94  28 2.00
  38  0.000  0.500  0.458-   2 1.94   8 1.94  29 2.00
  39  0.000  0.833  0.458-   3 1.94   9 1.94  30 2.00
  40  0.333  0.167  0.458-   4 1.94   1 1.94  31 2.00
  41  0.333  0.500  0.458-   5 1.94   2 1.94  32 2.00
  42  0.333  0.833  0.458-   6 1.94   3 1.94  33 2.00
  43  0.667  0.158  0.458-   7 1.94   4 1.94  34 2.00
  44  0.667  0.500  0.458-   8 1.94   5 1.94  35 2.00
  45  0.667  0.833  0.458-   9 1.94   6 1.94  36 2.00
  46  0.167  0.167  0.708-  11 1.94  10 1.94   1 2.00
  47  0.167  0.500  0.708-  11 1.94  12 1.94   2 2.00
  48  0.167  0.833  0.708-  12 1.94  10 1.94   3 2.00
  49  0.500  0.167  0.708-  14 1.94  13 1.94   4 2.00
  50  0.500  0.500  0.708-  14 1.94  15 1.94   5 2.00
  51  0.500  0.833  0.708-  15 1.94  13 1.94   6 2.00
  52  0.833  0.167  0.708-  17 1.94  16 1.94   7 2.00
  53  0.833  0.500  0.708-  17 1.94  18 1.94   8 2.00
  54  0.833  0.833  0.708-  18 1.94  16 1.94   9 2.00
  55  0.167  0.000  0.542-   1 1.94   3 1.94  10 2.00
  56  0.167  0.333  0.542-   2 1.94   1 1.94  11 2.00
  57  0.167  0.667  0.542-   3 1.94   2 1.94  12 2.00
  58  0.500  0.000  0.542-   4 1.94   6 1.94  13 2.00
  59  0.500  0.333  0.542-   5 1.94   4 1.94  14 2.00
  60  0.500  0.667  0.542-   6 1.94   5 1.94  15 2.00
  61  0.833  0.000  0.542-   7 1.94   9 1.94  16 2.00
  62  0.833  0.333  0.542-   8 1.94   7 1.94  17 2.00
  63  0.833  0.667  0.542-   9 1.94   8 1.94  18 2.00
  64  0.000  0.000  0.792-  10 1.94  16 1.94  19 2.00
  65  0.000  0.333  0.792-  11 1.94  17 1.94  20 2.00
  66  0.000  0.667  0.792-  12 1.94  18 1.94  21 2.00
  67  0.333  0.000  0.792-  13 1.94  10 1.94  22 2.00
  68  0.333  0.333  0.792-  14 1.94  11 1.94  23 2.00
  69  0.333  0.667  0.792-  15 1.94  12 1.94  24 2.00
  70  0.667  0.000  0.792-  16 1.94  13 1.94  25 2.00
  71  0.667  0.333  0.792-  17 1.94  14 1.94  26 2.00
  72  0.667  0.667  0.792-  18 1.94  15 1.94  27 2.00
  73  0.167  0.000  0.958-  22 1.94  19 1.94  10 2.00
  74  0.167  0.333  0.958-  23 1.94  20 1.94  11 2.00
  75  0.167  0.667  0.958-  24 1.94  21 1.94  12 2.00
  76  0.500  0.000  0.958-  22 1.94  25 1.94  13 2.00
  77  0.500  0.333  0.958-  23 1.94  26 1.94  14 2.00
  78  0.500  0.667  0.958-  24 1.94  27 1.94  15 2.00
  79  0.833  0.000  0.958-  25 1.94  19 1.94  16 2.00
  80  0.833  0.333  0.958-  26 1.94  20 1.94  17 2.00
  81  0.833  0.667  0.958-  27 1.94  21 1.94  18 2.00
  82  0.000  0.000  0.208-  28 1.94  30 1.94  19 2.00
  83  0.000  0.333  0.208-  29 1.94  28 1.94  20 2.00
  84  0.000  0.667  0.208-  30 1.94  29 1.94  21 2.00
  85  0.333  0.000  0.208-  31 1.94  33 1.94  22 2.00
  86  0.333  0.333  0.208-  32 1.94  31 1.94  23 2.00
  87  0.333  0.667  0.208-  33 1.94  32 1.94  24 2.00
  88  0.667  0.000  0.208-  34 1.94  36 1.94  25 2.00
  89  0.667  0.333  0.208-  35 1.94  34 1.94  26 2.00
  90  0.667  0.667  0.208-  36 1.94  35 1.94  27 2.00
  91  0.000  0.167  0.042-  20 1.94  19 1.94  28 2.00
  92  0.000  0.500  0.042-  20 1.94  21 1.94  29 2.00
  93  0.000  0.833  0.042-  21 1.94  19 1.94  30 2.00
  94  0.333  0.167  0.042-  23 1.94  22 1.94  31 2.00
  95  0.333  0.500  0.042-  23 1.94  24 1.94  32 2.00
  96  0.333  0.833  0.042-  24 1.94  22 1.94  33 2.00
  97  0.667  0.167  0.042-  26 1.94  25 1.94  34 2.00
  98  0.667  0.500  0.042-  26 1.94  27 1.94  35 2.00
  99  0.667  0.833  0.042-  27 1.94  25 1.94  36 2.00
 100  0.167  0.167  0.292-  31 1.94  28 1.94   1 2.00
 101  0.167  0.500  0.292-  32 1.94  29 1.94   2 2.00
 102  0.167  0.833  0.292-  33 1.94  30 1.94   3 2.00
 103  0.500  0.167  0.292-  31 1.94  34 1.94   4 2.00
 104  0.500  0.500  0.292-  32 1.94  35 1.94   5 2.00
 105  0.500  0.833  0.292-  33 1.94  36 1.94   6 2.00
 106  0.833  0.167  0.292-  34 1.94  28 1.94   7 2.00
 107  0.833  0.500  0.292-  35 1.94  29 1.94   8 2.00
 108  0.833  0.833  0.292-  36 1.94  30 1.94   9 2.00


IMPORTANT INFORMATION: All symmetrisations will be switched off!
NOSYMM: (Re-)initialisation of all symmetry stuff for point group C_1.


----------------------------------------------------------------------------------------

                                     Primitive cell

  volume of cell :    1243.1447

  direct lattice vectors                    reciprocal lattice vectors
    11.376843452  0.000000000  0.000000000     0.087897843  0.000000000  0.000000000
     0.000000000 11.376843452  0.000000000     0.000000000  0.087897843  0.000000000
     0.000000000  0.000000000  9.604574204     0.000000000  0.000000000  0.104117057

  length of vectors
    11.376843452 11.376843452  9.604574204     0.087897843  0.087897843  0.104117057

  position of ions in fractional coordinates (direct lattice)
     0.166666672  0.166666672  0.500000000
     0.166666672  0.500000000  0.500000000
     0.166666672  0.833333313  0.500000000
     0.500000000  0.166666672  0.500000000
     0.500000000  0.500000000  0.500000000
     0.500000000  0.833333313  0.500000000
     0.833333313  0.166666672  0.500000000
     0.833333313  0.500000000  0.500000000
     0.833333313  0.833333313  0.500000000
     0.166666672  0.000000000  0.750000000
     0.166666672  0.333333343  0.750000000
     0.166666672  0.666666687  0.750000000
     0.500000000  0.000000000  0.750000000
     0.500000000  0.333333343  0.750000000
     0.500000000  0.666666687  0.750000000
     0.833333313  0.000000000  0.750000000
     0.833333313  0.333333343  0.750000000
     0.833333313  0.666666687  0.750000000
     0.000000000  0.000000000  0.000000000
     0.000000000  0.333333343  0.000000000
     0.000000000  0.666666687  0.000000000
     0.333333343  0.000000000  0.000000000
     0.333333343  0.333333343  0.000000000
     0.333333343  0.666666687  0.000000000
     0.666666687  0.000000000  0.000000000
     0.666666687  0.333333343  0.000000000
     0.666666687  0.666666687  0.000000000
     0.000000000  0.166666672  0.250000000
     0.000000000  0.500000000  0.250000000
     0.000000000  0.833333313  0.250000000
     0.333333343  0.166666672  0.250000000
     0.333333343  0.500000000  0.250000000
     0.333333343  0.833333313  0.250000000
     0.666666687  0.166666672  0.250000000
     0.666666687  0.500000000  0.250000000
     0.666666687  0.833333313  0.250000000
     0.000000000  0.166666672  0.457898587
     0.000000000  0.500000000  0.457898587
     0.000000000  0.833333313  0.457898587
     0.333333343  0.166666672  0.457898587
     0.333333343  0.500000000  0.457898587
     0.333333343  0.833333313  0.457898587
     0.666666687  0.157876887  0.457898587
     0.666666687  0.500000000  0.457898587
     0.666666687  0.833333313  0.457898587
     0.166666672  0.166666672  0.707898617
     0.166666672  0.500000000  0.707898617
     0.166666672  0.833333313  0.707898617
     0.500000000  0.166666672  0.707898617
     0.500000000  0.500000000  0.707898617
     0.500000000  0.833333313  0.707898617
     0.833333313  0.166666672  0.707898617
     0.833333313  0.500000000  0.707898617
     0.833333313  0.833333313  0.707898617
     0.166666672  0.000000000  0.542101383
     0.166666672  0.333333343  0.542101383
     0.166666672  0.666666687  0.542101383
     0.500000000  0.000000000  0.542101383
     0.500000000  0.333333343  0.542101383
     0.500000000  0.666666687  0.542101383
     0.833333313  0.000000000  0.542101383
     0.833333313  0.333333343  0.542101383
     0.833333313  0.666666687  0.542101383
     0.000000000  0.000000000  0.792101383
     0.000000000  0.333333343  0.792101383
     0.000000000  0.666666687  0.792101383
     0.333333343  0.000000000  0.792101383
     0.333333343  0.333333343  0.792101383
     0.333333343  0.666666687  0.792101383
     0.666666687  0.000000000  0.792101383
     0.666666687  0.333333343  0.792101383
     0.666666687  0.666666687  0.792101383
     0.166666672  0.000000000  0.957898617
     0.166666672  0.333333343  0.957898617
     0.166666672  0.666666687  0.957898617
     0.500000000  0.000000000  0.957898617
     0.500000000  0.333333343  0.957898617
     0.500000000  0.666666687  0.957898617
     0.833333313  0.000000000  0.957898617
     0.833333313  0.333333343  0.957898617
     0.833333313  0.666666687  0.957898617
     0.000000000  0.000000000  0.207898602
     0.000000000  0.333333343  0.207898602
     0.000000000  0.666666687  0.207898602
     0.333333343  0.000000000  0.207898602
     0.333333343  0.333333343  0.207898602
     0.333333343  0.666666687  0.207898602
     0.666666687  0.000000000  0.207898602
     0.666666687  0.333333343  0.207898602
     0.666666687  0.666666687  0.207898602
     0.000000000  0.166666672  0.042101406
     0.000000000  0.500000000  0.042101406
     0.000000000  0.833333313  0.042101406
     0.333333343  0.166666672  0.042101406
     0.333333343  0.500000000  0.042101406
     0.333333343  0.833333313  0.042101406
     0.666666687  0.166666672  0.042101406
     0.666666687  0.500000000  0.042101406
     0.666666687  0.833333313  0.042101406
     0.166666672  0.166666672  0.292101413
     0.166666672  0.500000000  0.292101413
     0.166666672  0.833333313  0.292101413
     0.500000000  0.166666672  0.292101413
     0.500000000  0.500000000  0.292101413
     0.500000000  0.833333313  0.292101413
     0.833333313  0.166666672  0.292101413
     0.833333313  0.500000000  0.292101413
     0.833333313  0.833333313  0.292101413

  ion indices of the primitive-cell ions
   primitive index   ion index
                 1           1
                 2           2
                 3           3
                 4           4
                 5           5
                 6           6
                 7           7
                 8           8
                 9           9
                10          10
                11          11
                12          12
                13          13
                14          14
                15          15
                16          16
                17          17
                18          18
                19          19
                20          20
                21          21
                22          22
                23          23
                24          24
                25          25
                26          26
                27          27
                28          28
                29          29
                30          30
                31          31
                32          32
                33          33
                34          34
                35          35
                36          36
                37          37
                38          38
                39          39
                40          40
                41          41
                42          42
                43          43
                44          44
                45          45
                46          46
                47          47
                48          48
                49          49
                50          50
                51          51
                52          52
                53          53
                54          54
                55          55
                56          56
                57          57
                58          58
                59          59
                60          60
                61          61
                62          62
                63          63
                64          64
                65          65
                66          66
                67          67
                68          68
                69          69
                70          70
                71          71
                72          72
                73          73
                74          74
                75          75
                76          76
                77          77
                78          78
                79          79
                80          80
                81          81
                82          82
                83          83
                84          84
                85          85
                86          86
                87          87
                88          88
                89          89
                90          90
                91          91
                92          92
                93          93
                94          94
                95          95
                96          96
                97          97
                98          98
                99          99
               100         100
               101         101
               102         102
               103         103
               104         104
               105         105
               106         106
               107         107
               108         108

----------------------------------------------------------------------------------------



 KPOINTS: K-Points

Automatic generation of k-mesh.
 Grid dimensions read from file:
 generate k-points for:    2    2    2

 Generating k-lattice:

  Cartesian coordinates                     Fractional coordinates (reciprocal lattice)
     0.043948922  0.000000000  0.000000000     0.500000000  0.000000000  0.000000000
     0.000000000  0.043948922  0.000000000     0.000000000  0.500000000  0.000000000
     0.000000000  0.000000000  0.052058529     0.000000000  0.000000000  0.500000000

  Length of vectors
     0.043948922  0.043948922  0.052058529

  Shift w.r.t. Gamma in fractional coordinates (k-lattice)
     0.500000000  0.500000000  0.500000000


 Subroutine IBZKPT returns following result:
 ===========================================

 Found      4 irreducible k-points:

 Following reciprocal coordinates:
            Coordinates               Weight
  0.250000  0.250000  0.250000      2.000000
 -0.250000  0.250000  0.250000      2.000000
 -0.250000 -0.250000  0.250000      2.000000
  0.250000 -0.250000  0.250000      2.000000

 Following cartesian coordinates:
            Coordinates               Weight
  0.021974  0.021974  0.026029      2.000000
 -0.021974  0.021974  0.026029      2.000000
 -0.021974 -0.021974  0.026029      2.000000
  0.021974 -0.021974  0.026029      2.000000


 Subroutine IBZKPT_HF returns following result:
 ==============================================

 Found      8 k-points in 1st BZ
 the following      8 k-points will be used (e.g. in the exchange kernel)
 Following reciprocal coordinates:   # in IRBZ
  0.250000  0.250000  0.250000    0.12500000   1 t-inv F
 -0.250000  0.250000  0.250000    0.12500000   2 t-inv F
 -0.250000 -0.250000  0.250000    0.12500000   3 t-inv F
  0.250000 -0.250000  0.250000    0.12500000   4 t-inv F
 -0.250000 -0.250000 -0.250000    0.12500000   1 t-inv T
  0.250000 -0.250000 -0.250000    0.12500000   2 t-inv T
  0.250000  0.250000 -0.250000    0.12500000   3 t-inv T
 -0.250000  0.250000 -0.250000    0.12500000   4 t-inv T


--------------------------------------------------------------------------------------------------------




 Dimension of arrays:
   k-points           NKPTS =      4   k-points in BZ     NKDIM =      4   number of bands    NBANDS=    476
   number of dos      NEDOS =    301   number of ions     NIONS =    108
   non local maximal  LDIM  =      6   non local SUM 2l+1 LMDIM =     18
   total plane-waves  NPLWV = 150528
   max r-space proj   IRMAX =   1791   max aug-charges    IRDMAX=   4900
   dimension x,y,z NGX =    56 NGY =   56 NGZ =   48
   dimension x,y,z NGXF=   112 NGYF=  112 NGZF=   96
   support grid    NGXF=   112 NGYF=  112 NGZF=   96
   ions per type =              36  72
   NGX,Y,Z   is equivalent  to a cutoff of   8.18,  8.18,  8.31 a.u.
   NGXF,Y,Z  is equivalent  to a cutoff of  16.37, 16.37, 16.62 a.u.

 SYSTEM =  unknown system
 POSCAR =  Ti4 O8

 Startparameter for this run:
   NWRITE =      2    write-flag & timer
   PREC   = normal    normal or accurate (medium, high low for compatibility)
   ISTART =      0    job   : 0-new  1-cont  2-samecut
   ICHARG =      2    charge: 1-file 2-atom 10-const
   ISPIN  =      1    spin polarized calculation?
   LNONCOLLINEAR =      F non collinear calculations
   LSORBIT =      F    spin-orbit coupling
   INIWAV =      1    electr: 0-lowe 1-rand  2-diag
   LASPH  =      F    aspherical Exc in radial PAW
 Electronic Relaxation 1
   ENCUT  =  400.0 eV  29.40 Ry    5.42 a.u.  18.55 18.55 15.66*2*pi/ulx,y,z
   ENINI  =  400.0     initial cutoff
   ENAUG  =  605.4 eV  augmentation charge cutoff
   NELM   =     80;   NELMIN=  4; NELMDL= -5     # of ELM steps
   EDIFF  = 0.1E-06   stopping-criterion for ELM
   LREAL  =      T    real-space projection
   NLSPLINE    = F    spline interpolate recip. space projectors
   LCOMPAT=      F    compatible to vasp.4.4
   GGA_COMPAT  = T    GGA compatible to vasp.4.4-vasp.4.6
   LMAXPAW     = -100 max onsite density
   LMAXMIX     =    2 max onsite mixed and CHGCAR
   VOSKOWN=      0    Vosko Wilk Nusair interpolation
   ROPT   =   -0.00050  -0.00050
 Ionic relaxation
   EDIFFG = 0.1E-05   stopping-criterion for IOM
   NSW    =      0    number of steps for IOM
   NBLOCK =      1;   KBLOCK =      1    inner block; outer block
   IBRION =     -1    ionic relax: 0-MD 1-quasi-New 2-CG
   NFREE  =      0    steps in history (QN), initial steepest desc. (CG)
   ISIF   =      2    stress and relaxation
   IWAVPR =     10    prediction:  0-non 1-charg 2-wave 3-comb
   ISYM   =      0    0-nonsym 1-usesym 2-fastsym
   LCORR  =      T    Harris-Foulkes like correction to forces

   POTIM  = 0.5000    time-step for ionic-motion
   TEIN   =    0.0    initial temperature
   TEBEG  =    0.0;   TEEND  =   0.0 temperature during run
   SMASS  =  -3.00    Nose mass-parameter (am)
   estimated Nose-frequenzy (Omega)   =  0.10E-29 period in steps = 0.13E+47 mass=  -0.296E-26a.u.
   SCALEE = 1.0000    scale energy and forces
   NPACO  =    256;   APACO  = 10.0  distance and # of slots for P.C.
   PSTRESS=    0.0 pullay stress

  Mass of Ions in am
   POMASS =  47.88 16.00
  Ionic Valenz
   ZVAL   =  10.00  6.00
  Atomic Wigner-Seitz radii
   RWIGS  =  -1.00 -1.00
  virtual crystal weights
   VCA    =   1.00  1.00
   NELECT =     792.0000    total number of electrons
   NUPDOWN=      -1.0000    fix difference up-down

 DOS related values:
   EMIN   =  10.00;   EMAX   =-10.00  energy-range for DOS
   EFERMI =   0.00
   ISMEAR =     0;   SIGMA  =   0.10  broadening in eV -4-tet -1-fermi 0-gaus

 Electronic relaxation 2 (details)
   IALGO  =     38    algorithm
   LDIAG  =      T    sub-space diagonalisation (order eigenvalues)
   LSUBROT=      F    optimize rotation matrix (better conditioning)
   TURBO    =      0    0=normal 1=particle mesh
   IRESTART =      0    0=no restart 2=restart with 2 vectors
   NREBOOT  =      0    no. of reboots
   NMIN     =      0    reboot dimension
   EREF     =   0.00    reference energy to select bands
   IMIX   =      4    mixing-type and parameters
     AMIX     =   0.40;   BMIX     =  1.00
     AMIX_MAG =   1.60;   BMIX_MAG =  1.00
     AMIN     =   0.10
     WC   =   100.;   INIMIX=   1;  MIXPRE=   1;  MAXMIX= -45

 Intra band minimization:
   WEIMIN = 0.0000     energy-eigenvalue tresh-hold
   EBREAK =  0.53E-10  absolut break condition
   DEPER  =   0.30     relativ break condition

   TIME   =   0.40     timestep for ELM

  volume/ion in A,a.u.               =      11.51        77.68
  Fermi-wavevector in a.u.,A,eV,Ry     =   1.408670  2.662001 26.998745  1.984352
  Thomas-Fermi vector in A             =   2.530804

 Write flags
   LWAVE        =      F    write WAVECAR
   LDOWNSAMPLE  =      F    k-point downsampling of WAVECAR
   LCHARG       =      F    write CHGCAR
   LVTOT        =      F    write LOCPOT, total local potential
   LVHAR        =      F    write LOCPOT, Hartree potential only
   LELF         =      F    write electronic localiz. function (ELF)
   LORBIT       =      0    0 simple, 1 ext, 2 COOP (PROOUT), +10 PAW based schemes


 Dipole corrections
   LMONO  =      F    monopole corrections only (constant potential shift)
   LDIPOL =      F    correct potential (dipole corrections)
   IDIPOL =      0    1-x, 2-y, 3-z, 4-all directions
   EPSILON=  1.0000000 bulk dielectric constant

 Exchange correlation treatment:
   GGA     =    --    GGA type
   LEXCH   =     8    internal setting for exchange type
   LIBXC   =     F    Libxc
   VOSKOWN =     0    Vosko Wilk Nusair interpolation
   LHFCALC =     F    Hartree Fock is set to
   LHFONE  =     F    Hartree Fock one center treatment
   AEXX    =    0.0000 exact exchange contribution

 Linear response parameters
   LEPSILON=     T    determine dielectric tensor
   LRPA    =     F    only Hartree local field effects (RPA)
   LNABLA  =     F    use nabla operator in PAW spheres
   LVEL    =     F    velocity operator in full k-point grid
   CSHIFT  =0.1000    complex shift for real part using Kramers Kronig
   OMEGAMAX=  -1.0    maximum frequency
   DEG_THRESHOLD= 0.2000000E-02 threshold for treating states as degnerate
   RTIME   =   -0.100 relaxation time in fs
  (WPLASMAI=    0.000 imaginary part of plasma frequency in eV, 0.658/RTIME)
   DFIELD  = 0.0000000 0.0000000 0.0000000 field for delta impulse in time

  Optional k-point grid parameters
   LKPOINTS_OPT  =     F    use optional k-point grid
   KPOINTS_OPT_MODE=     1    mode for optional k-point grid

 Orbital magnetization related:
   ORBITALMAG=     F  switch on orbital magnetization
   LCHIMAG   =     F  perturbation theory with respect to B field
   DQ        =  0.001000  dq finite difference perturbation B field
   LLRAUG    =     F  two centre corrections for induced B field

 PEAD related settings:
   LPEAD      =     T    switch on PEAD
   IPEAD      =     4    finite difference order for dpsi/dk
   LCALCPOL   =     F    calculate macroscopic polarization
   LCALCEPS   =     F    calculate dielectric tensor
   EFIELD_PEAD=    0.0000    0.0000    0.0000
   SKIP_EDOTP =     F
   LRPA       =     F
   SKIP_SCF   =     F


--------------------------------------------------------------------------------------------------------


 Static calculation
 charge density and potential will be updated during run
 non-spin polarized calculation
 Variant of blocked Davidson
 Davidson routine will perform the subspace rotation
 perform sub-space diagonalisation
    after iterative eigenvector-optimisation
 modified Broyden-mixing scheme, WC =      100.0
 initial mixing is a Kerker type mixing with AMIX =  0.4000 and BMIX =      1.0000
 Hartree-type preconditioning will be used
 using additional bands           80
 real space projection scheme for non local part
 use partial core corrections
 calculate Harris-corrections to forces
   (improved forces if not selfconsistent)
 use gradient corrections
 use of overlap-Matrix (Vanderbilt PP)
 Gauss-broadening in eV      SIGMA  =   0.10


--------------------------------------------------------------------------------------------------------


  energy-cutoff  :      400.00
  volume of cell :     1243.14
      direct lattice vectors                 reciprocal lattice vectors
    11.376843452  0.000000000  0.000000000     0.087897843  0.000000000  0.000000000
     0.000000000 11.376843452  0.000000000     0.000000000  0.087897843  0.000000000
     0.000000000  0.000000000  9.604574204     0.000000000  0.000000000  0.104117057

  length of vectors
    11.376843452 11.376843452  9.604574204     0.087897843  0.087897843  0.104117057



 k-points in units of 2pi/SCALE and weight: K-Points
   0.02197446  0.02197446  0.02602926       0.250
  -0.02197446  0.02197446  0.02602926       0.250
  -0.02197446 -0.02197446  0.02602926       0.250
   0.02197446 -0.02197446  0.02602926       0.250

 k-points in reciprocal lattice and weights: K-Points
   0.25000000  0.25000000  0.25000000       0.250
  -0.25000000  0.25000000  0.25000000       0.250
  -0.25000000 -0.25000000  0.25000000       0.250
   0.25000000 -0.25000000  0.25000000       0.250

 position of ions in fractional coordinates (direct lattice)
   0.16666667  0.16666667  0.50000000
   0.16666667  0.50000000  0.50000000
   0.16666667  0.83333331  0.50000000
   0.50000000  0.16666667  0.50000000
   0.50000000  0.50000000  0.50000000
   0.50000000  0.83333331  0.50000000
   0.83333331  0.16666667  0.50000000
   0.83333331  0.50000000  0.50000000
   0.83333331  0.83333331  0.50000000
   0.16666667  0.00000000  0.75000000
   0.16666667  0.33333334  0.75000000
   0.16666667  0.66666669  0.75000000
   0.50000000  0.00000000  0.75000000
   0.50000000  0.33333334  0.75000000
   0.50000000  0.66666669  0.75000000
   0.83333331  0.00000000  0.75000000
   0.83333331  0.33333334  0.75000000
   0.83333331  0.66666669  0.75000000
   0.00000000  0.00000000  0.00000000
   0.00000000  0.33333334  0.00000000
   0.00000000  0.66666669  0.00000000
   0.33333334  0.00000000  0.00000000
   0.33333334  0.33333334  0.00000000
   0.33333334  0.66666669  0.00000000
   0.66666669  0.00000000  0.00000000
   0.66666669  0.33333334  0.00000000
   0.66666669  0.66666669  0.00000000
   0.00000000  0.16666667  0.25000000
   0.00000000  0.50000000  0.25000000
   0.00000000  0.83333331  0.25000000
   0.33333334  0.16666667  0.25000000
   0.33333334  0.50000000  0.25000000
   0.33333334  0.83333331  0.25000000
   0.66666669  0.16666667  0.25000000
   0.66666669  0.50000000  0.25000000
   0.66666669  0.83333331  0.25000000
   0.00000000  0.16666667  0.45789859
   0.00000000  0.50000000  0.45789859
   0.00000000  0.83333331  0.45789859
   0.33333334  0.16666667  0.45789859
   0.33333334  0.50000000  0.45789859
   0.33333334  0.83333331  0.45789859
   0.66666669  0.15787689  0.45789859
   0.66666669  0.50000000  0.45789859
   0.66666669  0.83333331  0.45789859
   0.16666667  0.16666667  0.70789862
   0.16666667  0.50000000  0.70789862
   0.16666667  0.83333331  0.70789862
   0.50000000  0.16666667  0.70789862
   0.50000000  0.50000000  0.70789862
   0.50000000  0.83333331  0.70789862
   0.83333331  0.16666667  0.70789862
   0.83333331  0.50000000  0.70789862
   0.83333331  0.83333331  0.70789862
   0.16666667  0.00000000  0.54210138
   0.16666667  0.33333334  0.54210138
   0.16666667  0.66666669  0.54210138
   0.50000000  0.00000000  0.54210138
   0.50000000  0.33333334  0.54210138
   0.50000000  0.66666669  0.54210138
   0.83333331  0.00000000  0.54210138
   0.83333331  0.33333334  0.54210138
   0.83333331  0.66666669  0.54210138
   0.00000000  0.00000000  0.79210138
   0.00000000  0.33333334  0.79210138
   0.00000000  0.66666669  0.79210138
   0.33333334  0.00000000  0.79210138
   0.33333334  0.33333334  0.79210138
   0.33333334  0.66666669  0.79210138
   0.66666669  0.00000000  0.79210138
   0.66666669  0.33333334  0.79210138
   0.66666669  0.66666669  0.79210138
   0.16666667  0.00000000  0.95789862
   0.16666667  0.33333334  0.95789862
   0.16666667  0.66666669  0.95789862
   0.50000000  0.00000000  0.95789862
   0.50000000  0.33333334  0.95789862
   0.50000000  0.66666669  0.95789862
   0.83333331  0.00000000  0.95789862
   0.83333331  0.33333334  0.95789862
   0.83333331  0.66666669  0.95789862
   0.00000000  0.00000000  0.20789860
   0.00000000  0.33333334  0.20789860
   0.00000000  0.66666669  0.20789860
   0.33333334  0.00000000  0.20789860
   0.33333334  0.33333334  0.20789860
   0.33333334  0.66666669  0.20789860
   0.66666669  0.00000000  0.20789860
   0.66666669  0.33333334  0.20789860
   0.66666669  0.66666669  0.20789860
   0.00000000  0.16666667  0.04210141
   0.00000000  0.50000000  0.04210141
   0.00000000  0.83333331  0.04210141
   0.33333334  0.16666667  0.04210141
   0.33333334  0.50000000  0.04210141
   0.33333334  0.83333331  0.04210141
   0.66666669  0.16666667  0.04210141
   0.66666669  0.50000000  0.04210141
   0.66666669  0.83333331  0.04210141
   0.16666667  0.16666667  0.29210141
   0.16666667  0.50000000  0.29210141
   0.16666667  0.83333331  0.29210141
   0.50000000  0.16666667  0.29210141
   0.50000000  0.50000000  0.29210141
   0.50000000  0.83333331  0.29210141
   0.83333331  0.16666667  0.29210141
   0.83333331  0.50000000  0.29210141
   0.83333331  0.83333331  0.29210141

 position of ions in cartesian coordinates  (Angst):
   1.89614063  1.89614063  4.80228710
   1.89614063  5.68842173  4.80228710
   1.89614063  9.48070265  4.80228710
   5.68842173  1.89614063  4.80228710
   5.68842173  5.68842173  4.80228710
   5.68842173  9.48070265  4.80228710
   9.48070265  1.89614063  4.80228710
   9.48070265  5.68842173  4.80228710
   9.48070265  9.48070265  4.80228710
   1.89614063  0.00000000  7.20343065
   1.89614063  3.79228126  7.20343065
   1.89614063  7.58456253  7.20343065
   5.68842173  0.00000000  7.20343065
   5.68842173  3.79228126  7.20343065
   5.68842173  7.58456253  7.20343065
   9.48070265  0.00000000  7.20343065
   9.48070265  3.79228126  7.20343065
   9.48070265  7.58456253  7.20343065
   0.00000000  0.00000000  0.00000000
   0.00000000  3.79228126  0.00000000
   0.00000000  7.58456253  0.00000000
   3.79228126  0.00000000  0.00000000
   3.79228126  3.79228126  0.00000000
   3.79228126  7.58456253  0.00000000
   7.58456253  0.00000000  0.00000000
   7.58456253  3.79228126  0.00000000
   7.58456253  7.58456253  0.00000000
   0.00000000  1.89614063  2.40114355
   0.00000000  5.68842173  2.40114355
   0.00000000  9.48070265  2.40114355
   3.79228126  1.89614063  2.40114355
   3.79228126  5.68842173  2.40114355
   3.79228126  9.48070265  2.40114355
   7.58456253  1.89614063  2.40114355
   7.58456253  5.68842173  2.40114355
   7.58456253  9.48070265  2.40114355
   0.00000000  1.89614063  4.39792096
   0.00000000  5.68842173  4.39792096
   0.00000000  9.48070265  4.39792096
   3.79228126  1.89614063  4.39792096
   3.79228126  5.68842173  4.39792096
   3.79228126  9.48070265  4.39792096
   7.58456253  1.79614063  4.39792096
   7.58456253  5.68842173  4.39792096
   7.58456253  9.48070265  4.39792096
   1.89614063  1.89614063  6.79906479
   1.89614063  5.68842173  6.79906479
   1.89614063  9.48070265  6.79906479
   5.68842173  1.89614063  6.79906479
   5.68842173  5.68842173  6.79906479
   5.68842173  9.48070265  6.79906479
   9.48070265  1.89614063  6.79906479
   9.48070265  5.68842173  6.79906479
   9.48070265  9.48070265  6.79906479
   1.89614063  0.00000000  5.20665296
   1.89614063  3.79228126  5.20665296
   1.89614063  7.58456253  5.20665296
   5.68842173  0.00000000  5.20665296
   5.68842173  3.79228126  5.20665296
   5.68842173  7.58456253  5.20665296
   9.48070265  0.00000000  5.20665296
   9.48070265  3.79228126  5.20665296
   9.48070265  7.58456253  5.20665296
   0.00000000  0.00000000  7.60779651
   0.00000000  3.79228126  7.60779651
   0.00000000  7.58456253  7.60779651
   3.79228126  0.00000000  7.60779651
   3.79228126  3.79228126  7.60779651
   3.79228126  7.58456253  7.60779651
   7.58456253  0.00000000  7.60779651
   7.58456253  3.79228126  7.60779651
   7.58456253  7.58456253  7.60779651
   1.89614063  0.00000000  9.20020834
   1.89614063  3.79228126  9.20020834
   1.89614063  7.58456253  9.20020834
   5.68842173  0.00000000  9.20020834
   5.68842173  3.79228126  9.20020834
   5.68842173  7.58456253  9.20020834
   9.48070265  0.00000000  9.20020834
   9.48070265  3.79228126  9.20020834
   9.48070265  7.58456253  9.20020834
   0.00000000  0.00000000  1.99677755
   0.00000000  3.79228126  1.99677755
   0.00000000  7.58456253  1.99677755
   3.79228126  0.00000000  1.99677755
   3.79228126  3.79228126  1.99677755
   3.79228126  7.58456253  1.99677755
   7.58456253  0.00000000  1.99677755
   7.58456253  3.79228126  1.99677755
   7.58456253  7.58456253  1.99677755
   0.00000000  1.89614063  0.40436607
   0.00000000  5.68842173  0.40436607
   0.00000000  9.48070265  0.40436607
   3.79228126  1.89614063  0.40436607
   3.79228126  5.68842173  0.40436607
   3.79228126  9.48070265  0.40436607
   7.58456253  1.89614063  0.40436607
   7.58456253  5.68842173  0.40436607
   7.58456253  9.48070265  0.40436607
   1.89614063  1.89614063  2.80550970
   1.89614063  5.68842173  2.80550970
   1.89614063  9.48070265  2.80550970
   5.68842173  1.89614063  2.80550970
   5.68842173  5.68842173  2.80550970
   5.68842173  9.48070265  2.80550970
   9.48070265  1.89614063  2.80550970
   9.48070265  5.68842173  2.80550970
   9.48070265  9.48070265  2.80550970



--------------------------------------------------------------------------------------------------------


 k-point   1 :   0.2500 0.2500 0.2500  plane waves:   22590
 k-point   2 :  -0.2500 0.2500 0.2500  plane waves:   22590
 k-point   3 :  -0.2500-0.2500 0.2500  plane waves:   22590
 k-point   4 :   0.2500-0.2500 0.2500  plane waves:   22590

 maximum and minimum number of plane-waves per node :     22590    22590

 maximum number of plane-waves:     22590
 maximum index in each direction:
   IXMAX=   18   IYMAX=   18   IZMAX=   15
   IXMIN=  -18   IYMIN=  -18   IZMIN=  -15


 serial   3D FFT for wavefunctions
 parallel 3D FFT for charge:
    minimum data exchange during FFTs selected (reduces bandwidth)


 total amount of memory used by VASP MPI-rank0   266725. kBytes
=======================================================================

   base      :      30000. kBytes
   nonlr-proj:      19556. kBytes
   fftplans  :      10927. kBytes
   grid      :      23181. kBytes
   one-center:       1679. kBytes
   wavefun   :     181382. kBytes

     INWAV:  cpu time      0.0000: real time      0.0002
 Broyden mixing: mesh for mixing (old mesh)
   NGX = 37   NGY = 37   NGZ = 31
  (NGX  =112   NGY  =112   NGZ  = 96)
  gives a total of  42439 points

 initial charge density was supplied:
 charge density of overlapping atoms calculated
 number of electron     792.0000000 magnetization
 keeping initial charge density in first step


--------------------------------------------------------------------------------------------------------


 Maximum index for non-local projection operator         1743
 Maximum index for augmentation-charges         1189 (set IRDMAX)


--------------------------------------------------------------------------------------------------------


 First call to EWALD:  gamma=   0.165
 Maximum number of real-space cells 3x 3x 3
 Maximum number of reciprocal cells 3x 3x 3

    FEWALD:  cpu time      0.0692: real time      0.0695


--------------------------------------- Iteration      1(   1)  ---------------------------------------


    POTLOK:  cpu time      0.1591: real time      0.1603
    SETDIJ:  cpu time      0.0250: real time      0.0252
     EDDAV:  cpu time     11.4816: real time     11.5474
       DOS:  cpu time      0.0033: real time      0.0034
    --------------------------------------------
      LOOP:  cpu time     11.6689: real time     11.7363

 eigenvalue-minimisations  :  3824
 total energy-change (2. order) : 0.1155954E+05  (-0.3305532E+05)
 number of electron     792.0000000 magnetization
 augmentation part      792.0000000 magnetization

 Free energy of the ion-electron system (eV)
  ---------------------------------------------------
  alpha Z        PSCENC =      3563.47650690
  Ewald energy   TEWEN  =    -48590.20004218
  -Hartree energ DENC   =    -18839.85403860
  -exchange      EXHF   =         0.00000000
  -V(xc)+E(xc)   XCENC  =      3286.84141239
  PAW double counting   =     54431.09303398   -54537.79254336
  entropy T*S    EENTRO =        -0.14475843
  eigenvalues    EBANDS =      3589.72314710
  atomic energy  EATOM  =     68656.39924158
  Solvation  Ediel_sol  =         0.00000000
  ---------------------------------------------------
  free energy    TOTEN  =     11559.54195937 eV

  energy without entropy =    11559.68671780  energy(sigma->0) =    11559.61433858


--------------------------------------------------------------------------------------------------------




--------------------------------------- Iteration      1(   2)  ---------------------------------------


     EDDAV:  cpu time     11.3747: real time     11.4383
       DOS:  cpu time      0.0008: real time      0.0008
    --------------------------------------------
      LOOP:  cpu time     11.3755: real time     11.4391

 eigenvalue-minimisations  :  3808
 total energy-change (2. order) :-0.9986779E+04  (-0.9556281E+04)
 number of electron     792.0000000 magnetization
 augmentation part      792.0000000 magnetization

 Free energy of the ion-electron system (eV)
  ---------------------------------------------------
  alpha Z        PSCENC =      3563.47650690
  Ewald energy   TEWEN  =    -48590.20004218
  -Hartree energ DENC   =    -18839.85403860
  -exchange      EXHF   =         0.00000000
  -V(xc)+E(xc)   XCENC  =      3286.84141239
  PAW double counting   =     54431.09303398   -54537.79254336
  entropy T*S    EENTRO =        -0.28720683
  eigenvalues    EBANDS =     -6396.91311948
  atomic energy  EATOM  =     68656.39924158
  Solvation  Ediel_sol  =         0.00000000
  ---------------------------------------------------
  free energy    TOTEN  =      1572.76324438 eV

  energy without entropy =     1573.05045122  energy(sigma->0) =     1572.90684780


--------------------------------------------------------------------------------------------------------




--------------------------------------- Iteration      1(   3)  ---------------------------------------


     EDDAV:  cpu time     12.8109: real time     12.8823
       DOS:  cpu time      0.0007: real time      0.0007
    --------------------------------------------
      LOOP:  cpu time     12.8116: real time     12.8831

 eigenvalue-minimisations  :  4416
 total energy-change (2. order) :-0.2641060E+04  (-0.2569093E+04)
 number of electron     792.0000000 magnetization
 augmentation part      792.0000000 magnetization

 Free energy of the ion-electron system (eV)
  ---------------------------------------------------
  alpha Z        PSCENC =      3563.47650690
  Ewald energy   TEWEN  =    -48590.20004218
  -Hartree energ DENC   =    -18839.85403860
  -exchange      EXHF   =         0.00000000
  -V(xc)+E(xc)   XCENC  =      3286.84141239
  PAW double counting   =     54431.09303398   -54537.79254336
  entropy T*S    EENTRO =        -0.00000000
  eigenvalues    EBANDS =     -9038.26040824
  atomic energy  EATOM  =     68656.39924158
  Solvation  Ediel_sol  =         0.00000000
  ---------------------------------------------------
  free energy    TOTEN  =     -1068.29683754 eV

  energy without entropy =    -1068.29683754  energy(sigma->0) =    -1068.29683754


--------------------------------------------------------------------------------------------------------




--------------------------------------- Iteration      1(   4)  ---------------------------------------


     EDDAV:  cpu time     14.2894: real time     14.3694
       DOS:  cpu time      0.0011: real time      0.0011
    --------------------------------------------
      LOOP:  cpu time     14.2905: real time     14.3704

 eigenvalue-minimisations  :  5056
 total energy-change (2. order) :-0.2050422E+03  (-0.2039354E+03)
 number of electron     792.0000000 magnetization
 augmentation part      792.0000000 magnetization

 Free energy of the ion-electron system (eV)
  ---------------------------------------------------
  alpha Z        PSCENC =      3563.47650690
  Ewald energy   TEWEN  =    -48590.20004218
  -Hartree energ DENC   =    -18839.85403860
  -exchange      EXHF   =         0.00000000
  -V(xc)+E(xc)   XCENC  =      3286.84141239
  PAW double counting   =     54431.09303398   -54537.79254336
  entropy T*S    EENTRO =        -0.00000000
  eigenvalues    EBANDS =     -9243.30263287
  atomic energy  EATOM  =     68656.39924158
  Solvation  Ediel_sol  =         0.00000000
  ---------------------------------------------------
  free energy    TOTEN  =     -1273.33906217 eV

  energy without entropy =    -1273.33906217  energy(sigma->0) =    -1273.33906217


--------------------------------------------------------------------------------------------------------




--------------------------------------- Iteration      1(   5)  ---------------------------------------


     EDDAV:  cpu time     14.2729: real time     14.3532
       DOS:  cpu time      0.0006: real time      0.0006
    CHARGE:  cpu time      0.2123: real time      0.2147
    MIXING:  cpu time      0.0124: real time      0.0126
    --------------------------------------------
      LOOP:  cpu time     14.4983: real time     14.5811

 eigenvalue-minimisations  :  5024
 total energy-change (2. order) :-0.5420657E+01  (-0.5410293E+01)
 number of electron     792.0003056 magnetization
 augmentation part      202.2432499 magnetization

 Broyden mixing:
  rms(total) = 0.17238E+02    rms(broyden)= 0.17236E+02
  rms(prec ) = 0.19176E+02
  weight for this iteration     100.00

 Free energy of the ion-electron system (eV)
  ---------------------------------------------------
  alpha Z        PSCENC =      3563.47650690
  Ewald energy   TEWEN  =    -48590.20004218
  -Hartree energ DENC   =    -18839.85403860
  -exchange      EXHF   =         0.00000000
  -V(xc)+E(xc)   XCENC  =      3286.84141239
  PAW double counting   =     54431.09303398   -54537.79254336
  entropy T*S    EENTRO =        -0.00000000
  eigenvalues    EBANDS =     -9248.72328945
  atomic energy  EATOM  =     68656.39924158
  Solvation  Ediel_sol  =         0.00000000
  ---------------------------------------------------
  free energy    TOTEN  =     -1278.75971875 eV

  energy without entropy =    -1278.75971875  energy(sigma->0) =    -1278.75971875


--------------------------------------------------------------------------------------------------------




--------------------------------------- Iteration      1(   6)  ---------------------------------------


    POTLOK:  cpu time      0.1487: real time      0.1498
    SETDIJ:  cpu time      0.0305: real time      0.0307
     EDDAV:  cpu time     14.1616: real time     14.2379
       DOS:  cpu time      0.0007: real time      0.0007
    CHARGE:  cpu time      0.2133: real time      0.2155
    MIXING:  cpu time      0.0097: real time      0.0140
    --------------------------------------------
      LOOP:  cpu time     14.5645: real time     14.6487

 eigenvalue-minimisations  :  4992
 total energy-change (2. order) : 0.3021925E+03  (-0.1979313E+03)
 number of electron     792.0002463 magnetization
 augmentation part      214.1294100 magnetization

 Broyden mixing:
  rms(total) = 0.52956E+01    rms(broyden)= 0.52907E+01
  rms(prec ) = 0.58264E+01
  weight for this iteration     100.00

 eigenvalues of (default mixing * dielectric matrix)
  average eigenvalue GAMMA=   0.9638
  0.9638

 Free energy of the ion-electron system (eV)
  ---------------------------------------------------
  alpha Z        PSCENC =      3563.47650690
  Ewald energy   TEWEN  =    -48590.20004218
  -Hartree energ DENC   =    -19064.98109261
  -exchange      EXHF   =         0.00000000
  -V(xc)+E(xc)   XCENC  =      3337.87626878
  PAW double counting   =     68246.94108157   -68479.24489803
  entropy T*S    EENTRO =        -0.00000000
  eigenvalues    EBANDS =     -8646.83427263
  atomic energy  EATOM  =     68656.39924158
  Solvation  Ediel_sol  =         0.00000000
  ---------------------------------------------------
  free energy    TOTEN  =      -976.56720661 eV

  energy without entropy =     -976.56720661  energy(sigma->0) =     -976.56720661


--------------------------------------------------------------------------------------------------------




--------------------------------------- Iteration      1(   7)  ---------------------------------------


    POTLOK:  cpu time      0.1506: real time      0.1517
    SETDIJ:  cpu time      0.0334: real time      0.0335
     EDDAV:  cpu time     15.0116: real time     15.0941
       DOS:  cpu time      0.0006: real time      0.0006
    CHARGE:  cpu time      0.2110: real time      0.2131
    MIXING:  cpu time      0.0117: real time      0.0120
    --------------------------------------------
      LOOP:  cpu time     15.4188: real time     15.5050

 eigenvalue-minimisations  :  5328
 total energy-change (2. order) : 0.4466836E+01  (-0.2856662E+02)
 number of electron     792.0002653 magnetization
 augmentation part      207.3391619 magnetization

 Broyden mixing:
  rms(total) = 0.45947E+01    rms(broyden)= 0.45945E+01
  rms(prec ) = 0.47876E+01
  weight for this iteration     100.00

 eigenvalues of (default mixing * dielectric matrix)
  average eigenvalue GAMMA=   1.8521
  0.7372  2.9670

 Free energy of the ion-electron system (eV)
  ---------------------------------------------------
  alpha Z        PSCENC =      3563.47650690
  Ewald energy   TEWEN  =    -48590.20004218
  -Hartree energ DENC   =    -18906.47158473
  -exchange      EXHF   =         0.00000000
  -V(xc)+E(xc)   XCENC  =      3318.57068557
  PAW double counting   =     75219.73895803   -75463.01517754
  entropy T*S    EENTRO =        -0.00000000
  eigenvalues    EBANDS =     -8770.59895837
  atomic energy  EATOM  =     68656.39924158
  Solvation  Ediel_sol  =         0.00000000
  ---------------------------------------------------
  free energy    TOTEN  =      -972.10037074 eV

  energy without entropy =     -972.10037074  energy(sigma->0) =     -972.10037074


--------------------------------------------------------------------------------------------------------




--------------------------------------- Iteration      1(   8)  ---------------------------------------


    POTLOK:  cpu time      0.1481: real time      0.1491
    SETDIJ:  cpu time      0.0317: real time      0.0319
     EDDAV:  cpu time     14.2473: real time     14.3250
       DOS:  cpu time      0.0006: real time      0.0006
    CHARGE:  cpu time      0.2113: real time      0.2134
    MIXING:  cpu time      0.0115: real time      0.0115
    --------------------------------------------
      LOOP:  cpu time     14.6505: real time     14.7315

 eigenvalue-minimisations  :  5024
 total energy-change (2. order) :-0.2410023E+00  (-0.1119744E+02)
 number of electron     792.0002587 magnetization
 augmentation part      215.6350291 magnetization

 Broyden mixing:
  rms(total) = 0.34013E+01    rms(broyden)= 0.34011E+01
  rms(prec ) = 0.37040E+01
  weight for this iteration     100.00

 eigenvalues of (default mixing * dielectric matrix)
  average eigenvalue GAMMA=   1.2345
  2.1755  0.9291  0.5988

 Free energy of the ion-electron system (eV)
  ---------------------------------------------------
  alpha Z        PSCENC =      3563.47650690
  Ewald energy   TEWEN  =    -48590.20004218
  -Hartree energ DENC   =    -18527.80085910
  -exchange      EXHF   =         0.00000000
  -V(xc)+E(xc)   XCENC  =      3303.74592084
  PAW double counting   =     93925.60576889   -94241.65410909
  entropy T*S    EENTRO =        -0.00000000
  eigenvalues    EBANDS =     -9061.91380087
  atomic energy  EATOM  =     68656.39924158
  Solvation  Ediel_sol  =         0.00000000
  ---------------------------------------------------
  free energy    TOTEN  =      -972.34137302 eV

  energy without entropy =     -972.34137302  energy(sigma->0) =     -972.34137302


--------------------------------------------------------------------------------------------------------




--------------------------------------- Iteration      1(   9)  ---------------------------------------


    POTLOK:  cpu time      0.1398: real time      0.1410
    SETDIJ:  cpu time      0.0451: real time      0.0453
     EDDAV:  cpu time     14.3599: real time     14.4393
       DOS:  cpu time      0.0005: real time      0.0005
    CHARGE:  cpu time      0.2105: real time      0.2126
    MIXING:  cpu time      0.0136: real time      0.0136
    --------------------------------------------
      LOOP:  cpu time     14.7694: real time     14.8524

 eigenvalue-minimisations  :  5096
 total energy-change (2. order) : 0.5718291E+01  (-0.3541847E+01)
 number of electron     792.0002635 magnetization
 augmentation part      211.4648119 magnetization

 Broyden mixing:
  rms(total) = 0.24432E+00    rms(broyden)= 0.24355E+00
  rms(prec ) = 0.26764E+00
  weight for this iteration     100.00

 eigenvalues of (default mixing * dielectric matrix)
  average eigenvalue GAMMA=   1.3653
  2.3016  1.4547  1.0865  0.6185

 Free energy of the ion-electron system (eV)
  ---------------------------------------------------
  alpha Z        PSCENC =      3563.47650690
  Ewald energy   TEWEN  =    -48590.20004218
  -Hartree energ DENC   =    -18674.80867047
  -exchange      EXHF   =         0.00000000
  -V(xc)+E(xc)   XCENC  =      3308.72476262
  PAW double counting   =     88568.30935154   -88864.73727964
  entropy T*S    EENTRO =        -0.00000000
  eigenvalues    EBANDS =     -8933.78695288
  atomic energy  EATOM  =     68656.39924158
  Solvation  Ediel_sol  =         0.00000000
  ---------------------------------------------------
  free energy    TOTEN  =      -966.62308252 eV

  energy without entropy =     -966.62308252  energy(sigma->0) =     -966.62308252


--------------------------------------------------------------------------------------------------------




--------------------------------------- Iteration      1(  10)  ---------------------------------------


    POTLOK:  cpu time      0.1480: real time      0.1489
    SETDIJ:  cpu time      0.0314: real time      0.0315
     EDDAV:  cpu time     14.5893: real time     14.6706
       DOS:  cpu time      0.0005: real time      0.0005
    CHARGE:  cpu time      0.2125: real time      0.2146
    MIXING:  cpu time      0.0119: real time      0.0120
    --------------------------------------------
      LOOP:  cpu time     14.9936: real time     15.0782

 eigenvalue-minimisations  :  5192
 total energy-change (2. order) :-0.1110384E+00  (-0.1327766E+00)
 number of electron     792.0002621 magnetization
 augmentation part      211.6499939 magnetization

 Broyden mixing:
  rms(total) = 0.29661E+00    rms(broyden)= 0.29659E+00
  rms(prec ) = 0.34315E+00
  weight for this iteration     100.00

 eigenvalues of (default mixing * dielectric matrix)
  average eigenvalue GAMMA=   1.3788
  2.5388  1.8611  0.9473  0.9473  0.5994

 Free energy of the ion-electron system (eV)
  ---------------------------------------------------
  alpha Z        PSCENC =      3563.47650690
  Ewald energy   TEWEN  =    -48590.20004218
  -Hartree energ DENC   =    -18722.90890276
  -exchange      EXHF   =         0.00000000
  -V(xc)+E(xc)   XCENC  =      3312.31077561
  PAW double counting   =     89065.53044634   -89367.38188115
  entropy T*S    EENTRO =        -0.00000000
  eigenvalues    EBANDS =     -8883.96026529
  atomic energy  EATOM  =     68656.39924158
  Solvation  Ediel_sol  =         0.00000000
  ---------------------------------------------------
  free energy    TOTEN  =      -966.73412096 eV

  energy without entropy =     -966.73412096  energy(sigma->0) =     -966.73412096


--------------------------------------------------------------------------------------------------------




--------------------------------------- Iteration      1(  11)  ---------------------------------------


    POTLOK:  cpu time      0.1412: real time      0.1425
    SETDIJ:  cpu time      0.0391: real time      0.0392
     EDDAV:  cpu time     15.0886: real time     15.1732
       DOS:  cpu time      0.0006: real time      0.0006
    CHARGE:  cpu time      0.2107: real time      0.2116
    MIXING:  cpu time      0.0148: real time      0.0148
    --------------------------------------------
      LOOP:  cpu time     15.4949: real time     15.5819

 eigenvalue-minimisations  :  5320
 total energy-change (2. order) : 0.6807006E-01  (-0.4002106E-01)
 number of electron     792.0002626 magnetization
 augmentation part      211.2714573 magnetization

 Broyden mixing:
  rms(total) = 0.48034E-01    rms(broyden)= 0.47957E-01
  rms(prec ) = 0.57724E-01
  weight for this iteration     100.00

 eigenvalues of (default mixing * dielectric matrix)
  average eigenvalue GAMMA=   1.2913
  2.5542  1.6098  1.3095  1.0650  0.5748  0.6349

 Free energy of the ion-electron system (eV)
  ---------------------------------------------------
  alpha Z        PSCENC =      3563.47650690
  Ewald energy   TEWEN  =    -48590.20004218
  -Hartree energ DENC   =    -18737.64688884
  -exchange      EXHF   =         0.00000000
  -V(xc)+E(xc)   XCENC  =      3312.84648522
  PAW double counting   =     89190.31046663   -89492.71464738
  entropy T*S    EENTRO =        -0.00000000
  eigenvalues    EBANDS =     -8869.13717283
  atomic energy  EATOM  =     68656.39924158
  Solvation  Ediel_sol  =         0.00000000
  ---------------------------------------------------
  free energy    TOTEN  =      -966.66605090 eV

  energy without entropy =     -966.66605090  energy(sigma->0) =     -966.66605090


--------------------------------------------------------------------------------------------------------




--------------------------------------- Iteration      1(  12)  ---------------------------------------


    POTLOK:  cpu time      0.1524: real time      0.1536
    SETDIJ:  cpu time      0.0259: real time      0.0268
     EDDAV:  cpu time     15.0477: real time     15.1297
       DOS:  cpu time      0.0009: real time      0.0009
    CHARGE:  cpu time      0.2098: real time      0.2107
    MIXING:  cpu time      0.0131: real time      0.0132
    --------------------------------------------
      LOOP:  cpu time     15.4497: real time     15.5348

 eigenvalue-minimisations  :  5344
 total energy-change (2. order) :-0.2621484E-02  (-0.7371840E-02)
 number of electron     792.0002629 magnetization
 augmentation part      211.1892238 magnetization

 Broyden mixing:
  rms(total) = 0.47440E-01    rms(broyden)= 0.47392E-01
  rms(prec ) = 0.56355E-01
  weight for this iteration     100.00

 eigenvalues of (default mixing * dielectric matrix)
  average eigenvalue GAMMA=   1.2724
  2.5857  1.7459  1.7459  0.9565  0.7599  0.5808  0.5324

 Free energy of the ion-electron system (eV)
  ---------------------------------------------------
  alpha Z        PSCENC =      3563.47650690
  Ewald energy   TEWEN  =    -48590.20004218
  -Hartree energ DENC   =    -18734.84682786
  -exchange      EXHF   =         0.00000000
  -V(xc)+E(xc)   XCENC  =      3312.53713684
  PAW double counting   =     89230.05857415   -89532.01999125
  entropy T*S    EENTRO =        -0.00000000
  eigenvalues    EBANDS =     -8872.07327057
  atomic energy  EATOM  =     68656.39924158
  Solvation  Ediel_sol  =         0.00000000
  ---------------------------------------------------
  free energy    TOTEN  =      -966.66867238 eV

  energy without entropy =     -966.66867238  energy(sigma->0) =     -966.66867238


--------------------------------------------------------------------------------------------------------




--------------------------------------- Iteration      1(  13)  ---------------------------------------


    POTLOK:  cpu time      0.1372: real time      0.1382
    SETDIJ:  cpu time      0.0425: real time      0.0426
     EDDAV:  cpu time     14.9321: real time     15.0151
       DOS:  cpu time      0.0006: real time      0.0006
    CHARGE:  cpu time      0.2097: real time      0.2107
    MIXING:  cpu time      0.0148: real time      0.0149
    --------------------------------------------
      LOOP:  cpu time     15.3368: real time     15.4220

 eigenvalue-minimisations  :  5312
 total energy-change (2. order) : 0.1313159E-02  (-0.9822319E-03)
 number of electron     792.0002628 magnetization
 augmentation part      211.2304786 magnetization

 Broyden mixing:
  rms(total) = 0.20482E-01    rms(broyden)= 0.20480E-01
  rms(prec ) = 0.23968E-01
  weight for this iteration     100.00

 eigenvalues of (default mixing * dielectric matrix)
  average eigenvalue GAMMA=   1.2628
  2.5190  1.8148  1.8148  1.0291  0.8813  0.8813  0.6059  0.5565

 Free energy of the ion-electron system (eV)
  ---------------------------------------------------
  alpha Z        PSCENC =      3563.47650690
  Ewald energy   TEWEN  =    -48590.20004218
  -Hartree energ DENC   =    -18735.42346056
  -exchange      EXHF   =         0.00000000
  -V(xc)+E(xc)   XCENC  =      3312.60574491
  PAW double counting   =     89246.25763839   -89548.10114200
  entropy T*S    EENTRO =        -0.00000000
  eigenvalues    EBANDS =     -8871.68184626
  atomic energy  EATOM  =     68656.39924158
  Solvation  Ediel_sol  =         0.00000000
  ---------------------------------------------------
  free energy    TOTEN  =      -966.66735922 eV

  energy without entropy =     -966.66735922  energy(sigma->0) =     -966.66735922


--------------------------------------------------------------------------------------------------------




--------------------------------------- Iteration      1(  14)  ---------------------------------------


    POTLOK:  cpu time      0.1537: real time      0.1550
    SETDIJ:  cpu time      0.0268: real time      0.0269
     EDDAV:  cpu time     14.9647: real time     15.0475
       DOS:  cpu time      0.0008: real time      0.0008
    CHARGE:  cpu time      0.2087: real time      0.2096
    MIXING:  cpu time      0.0154: real time      0.0154
    --------------------------------------------
      LOOP:  cpu time     15.3701: real time     15.4554

 eigenvalue-minimisations  :  5344
 total energy-change (2. order) :-0.2575756E-03  (-0.1816132E-03)
 number of electron     792.0002628 magnetization
 augmentation part      211.2103953 magnetization

 Broyden mixing:
  rms(total) = 0.19368E-01    rms(broyden)= 0.19366E-01
  rms(prec ) = 0.22810E-01
  weight for this iteration     100.00

 eigenvalues of (default mixing * dielectric matrix)
  average eigenvalue GAMMA=   1.2796
  2.4966  2.4966  1.8437  0.8760  0.8760  0.9746  0.8190  0.5936  0.5401

 Free energy of the ion-electron system (eV)
  ---------------------------------------------------
  alpha Z        PSCENC =      3563.47650690
  Ewald energy   TEWEN  =    -48590.20004218
  -Hartree energ DENC   =    -18737.85153870
  -exchange      EXHF   =         0.00000000
  -V(xc)+E(xc)   XCENC  =      3312.73271098
  PAW double counting   =     89194.62171521   -89496.23050688
  entropy T*S    EENTRO =        -0.00000000
  eigenvalues    EBANDS =     -8869.61570371
  atomic energy  EATOM  =     68656.39924158
  Solvation  Ediel_sol  =         0.00000000
  ---------------------------------------------------
  free energy    TOTEN  =      -966.66761680 eV

  energy without entropy =     -966.66761680  energy(sigma->0) =     -966.66761680


--------------------------------------------------------------------------------------------------------




--------------------------------------- Iteration      1(  15)  ---------------------------------------


    POTLOK:  cpu time      0.1524: real time      0.1537
    SETDIJ:  cpu time      0.0243: real time      0.0250
     EDDAV:  cpu time     14.9903: real time     15.0725
       DOS:  cpu time      0.0005: real time      0.0005
    CHARGE:  cpu time      0.2073: real time      0.2083
    MIXING:  cpu time      0.0143: real time      0.0144
    --------------------------------------------
      LOOP:  cpu time     15.3891: real time     15.4744

 eigenvalue-minimisations  :  5344
 total energy-change (2. order) : 0.1891259E-03  (-0.2565423E-03)
 number of electron     792.0002628 magnetization
 augmentation part      211.2342319 magnetization

 Broyden mixing:
  rms(total) = 0.37794E-02    rms(broyden)= 0.37707E-02
  rms(prec ) = 0.46072E-02
  weight for this iteration     100.00

 eigenvalues of (default mixing * dielectric matrix)
  average eigenvalue GAMMA=   1.2536
  2.7597  2.5609  1.8476  1.0056  1.0056  0.8010  0.8010  0.6352  0.5749  0.5441

 Free energy of the ion-electron system (eV)
  ---------------------------------------------------
  alpha Z        PSCENC =      3563.47650690
  Ewald energy   TEWEN  =    -48590.20004218
  -Hartree energ DENC   =    -18738.60637098
  -exchange      EXHF   =         0.00000000
  -V(xc)+E(xc)   XCENC  =      3312.79422563
  PAW double counting   =     89187.72731692   -89489.22846254
  entropy T*S    EENTRO =        -0.00000000
  eigenvalues    EBANDS =     -8869.02984301
  atomic energy  EATOM  =     68656.39924158
  Solvation  Ediel_sol  =         0.00000000
  ---------------------------------------------------
  free energy    TOTEN  =      -966.66742767 eV

  energy without entropy =     -966.66742767  energy(sigma->0) =     -966.66742767


--------------------------------------------------------------------------------------------------------




--------------------------------------- Iteration      1(  16)  ---------------------------------------


    POTLOK:  cpu time      0.1429: real time      0.1438
    SETDIJ:  cpu time      0.0366: real time      0.0375
     EDDAV:  cpu time     14.8230: real time     14.9042
       DOS:  cpu time      0.0006: real time      0.0006
    CHARGE:  cpu time      0.2093: real time      0.2108
    MIXING:  cpu time      0.0148: real time      0.0148
    --------------------------------------------
      LOOP:  cpu time     15.2272: real time     15.3117

 eigenvalue-minimisations  :  5280
 total energy-change (2. order) :-0.3319701E-04  (-0.3953611E-04)
 number of electron     792.0002627 magnetization
 augmentation part      211.2415114 magnetization

 Broyden mixing:
  rms(total) = 0.55356E-02    rms(broyden)= 0.55333E-02
  rms(prec ) = 0.65511E-02
  weight for this iteration     100.00

 eigenvalues of (default mixing * dielectric matrix)
  average eigenvalue GAMMA=   1.2289
  2.8086  2.5228  1.6026  1.3662  0.8773  0.8773  0.9517  0.8094  0.5932  0.5932
  0.5159

 Free energy of the ion-electron system (eV)
  ---------------------------------------------------
  alpha Z        PSCENC =      3563.47650690
  Ewald energy   TEWEN  =    -48590.20004218
  -Hartree energ DENC   =    -18738.81513312
  -exchange      EXHF   =         0.00000000
  -V(xc)+E(xc)   XCENC  =      3312.81157179
  PAW double counting   =     89189.98972621   -89491.48233839
  entropy T*S    EENTRO =        -0.00000000
  eigenvalues    EBANDS =     -8868.84699366
  atomic energy  EATOM  =     68656.39924158
  Solvation  Ediel_sol  =         0.00000000
  ---------------------------------------------------
  free energy    TOTEN  =      -966.66746087 eV

  energy without entropy =     -966.66746087  energy(sigma->0) =     -966.66746087


--------------------------------------------------------------------------------------------------------




--------------------------------------- Iteration      1(  17)  ---------------------------------------


    POTLOK:  cpu time      0.1468: real time      0.1480
    SETDIJ:  cpu time      0.0321: real time      0.0323
     EDDAV:  cpu time     14.9777: real time     15.0598
       DOS:  cpu time      0.0008: real time      0.0008
    CHARGE:  cpu time      0.2106: real time      0.2116
    MIXING:  cpu time      0.0153: real time      0.0154
    --------------------------------------------
      LOOP:  cpu time     15.3835: real time     15.4679

 eigenvalue-minimisations  :  5344
 total energy-change (2. order) : 0.2143993E-04  (-0.1780579E-04)
 number of electron     792.0002628 magnetization
 augmentation part      211.2357018 magnetization

 Broyden mixing:
  rms(total) = 0.14218E-02    rms(broyden)= 0.14207E-02
  rms(prec ) = 0.16726E-02
  weight for this iteration     100.00

 eigenvalues of (default mixing * dielectric matrix)
  average eigenvalue GAMMA=   1.2157
  2.8580  2.3927  1.7290  1.4984  1.0172  0.8332  0.8332  0.8732  0.8732  0.5994
  0.5584  0.5226

 Free energy of the ion-electron system (eV)
  ---------------------------------------------------
  alpha Z        PSCENC =      3563.47650690
  Ewald energy   TEWEN  =    -48590.20004218
  -Hartree energ DENC   =    -18738.89093565
  -exchange      EXHF   =         0.00000000
  -V(xc)+E(xc)   XCENC  =      3312.80935673
  PAW double counting   =     89188.44358434   -89489.94512807
  entropy T*S    EENTRO =        -0.00000000
  eigenvalues    EBANDS =     -8868.76002308
  atomic energy  EATOM  =     68656.39924158
  Solvation  Ediel_sol  =         0.00000000
  ---------------------------------------------------
  free energy    TOTEN  =      -966.66743943 eV

  energy without entropy =     -966.66743943  energy(sigma->0) =     -966.66743943


--------------------------------------------------------------------------------------------------------




--------------------------------------- Iteration      1(  18)  ---------------------------------------


    POTLOK:  cpu time      0.1424: real time      0.1434
    SETDIJ:  cpu time      0.0337: real time      0.0338
     EDDAV:  cpu time     14.8794: real time     14.9612
       DOS:  cpu time      0.0008: real time      0.0008
    CHARGE:  cpu time      0.2093: real time      0.2103
    MIXING:  cpu time      0.0153: real time      0.0154
    --------------------------------------------
      LOOP:  cpu time     15.2809: real time     15.3647

 eigenvalue-minimisations  :  5296
 total energy-change (2. order) :-0.6198519E-05  (-0.1408070E-05)
 number of electron     792.0002628 magnetization
 augmentation part      211.2374062 magnetization

 Broyden mixing:
  rms(total) = 0.19046E-02    rms(broyden)= 0.19044E-02
  rms(prec ) = 0.22234E-02
  weight for this iteration     100.00

 eigenvalues of (default mixing * dielectric matrix)
  average eigenvalue GAMMA=   1.2390
  2.8950  2.3492  1.9477  1.9477  0.8820  0.8820  0.9698  0.9244  0.9244  0.7159
  0.5815  0.5741  0.5129

 Free energy of the ion-electron system (eV)
  ---------------------------------------------------
  alpha Z        PSCENC =      3563.47650690
  Ewald energy   TEWEN  =    -48590.20004218
  -Hartree energ DENC   =    -18738.79261996
  -exchange      EXHF   =         0.00000000
  -V(xc)+E(xc)   XCENC  =      3312.80326585
  PAW double counting   =     89191.27192503   -89492.78854566
[...]
      7.58456      3.79228      1.99678     0.00000  0.00795 -2.89297 ( -0.63492  6.00000)
      7.58456      7.58456      1.99678    -0.00000  0.00698 -2.89456 ( -0.63484  6.00000)
      0.00000      1.89614      0.40437     0.00003 -0.00158 -2.89490 ( -0.63483  6.00000)
      0.00000      5.68842      0.40437    -0.00000  0.00063 -2.89365 ( -0.63481  6.00000)
      0.00000      9.48070      0.40437    -0.00001  0.00098 -2.89533 ( -0.63483  6.00000)
      3.79228      1.89614      0.40437    -0.00005 -0.00162 -2.89498 ( -0.63484  6.00000)
      3.79228      5.68842      0.40437    -0.00005  0.00065 -2.89422 ( -0.63481  6.00000)
      3.79228      9.48070      0.40437    -0.00002  0.00108 -2.89540 ( -0.63484  6.00000)
      7.58456      1.89614      0.40437    -0.00000  0.00727 -2.89565 ( -0.63483  6.00000)
      7.58456      5.68842      0.40437     0.00002  0.00137 -2.89513 ( -0.63481  6.00000)
      7.58456      9.48070      0.40437     0.00000  0.00097 -2.89425 ( -0.63484  6.00000)
      1.89614      1.89614      2.80551    -0.00030  0.00006 -2.89489 ( -0.63484  6.00000)
      1.89614      5.68842      2.80551    -0.00025  0.00001 -2.89564 ( -0.63483  6.00000)
      1.89614      9.48070      2.80551    -0.00031  0.00000 -2.89353 ( -0.63484  6.00000)
      5.68842      1.89614      2.80551    -0.00190  0.00012 -2.89450 ( -0.63480  6.00000)
      5.68842      5.68842      2.80551    -0.00027  0.00005 -2.89462 ( -0.63480  6.00000)
      5.68842      9.48070      2.80551     0.00014 -0.00005 -2.89381 ( -0.63481  6.00000)
      9.48070      1.89614      2.80551     0.00226  0.00010 -2.89456 ( -0.63482  6.00000)
      9.48070      5.68842      2.80551     0.00053  0.00005 -2.89525 ( -0.63483  6.00000)
      9.48070      9.48070      2.80551     0.00021 -0.00003 -2.89390 ( -0.63484  6.00000)
 -----------------------------------------------------------------------------------------
    total drift (improves with k-points):  -0.00007  0.00008 -0.07344




--------------------------------------------------------------------------------------------------------




 MACROSCOPIC STATIC DIELECTRIC TENSOR (including local field effects in DFT)
 ------------------------------------------------------
           6.958878     0.000003    -0.000005
           0.000008     6.958704    -0.000887
          -0.000003    -0.000895     6.373034
 ------------------------------------------------------



--------------------------------------------------------------------------------------------------------




--------------------------------------------------------------------------------------------------------




 MACROSCOPIC STATIC DIELECTRIC TENSOR (including local field effects in DFT)
 ------------------------------------------------------
           6.958878     0.000003    -0.000005
           0.000008     6.958704    -0.000887
          -0.000003    -0.000895     6.373034
 ------------------------------------------------------


 PIEZOELECTRIC TENSOR (including local field effects)  for field in x, y, z        (e  Angst)
          XX          YY          ZZ          XY          YZ          ZX
  --------------------------------------------------------------------------------
  x    -0.00128     0.00133     0.00061     0.56243     0.00004     0.01402
  y    -0.05578    -0.01099    -0.06126     0.00020     0.01493    -0.00002
  z    -0.01803    -0.00673     0.03479    -0.00010     0.16291     0.00029

 PIEZOELECTRIC TENSOR (including local field effects)  for field in x, y, z        (C/m^2)
          XX          YY          ZZ          XY          YZ          ZX
  --------------------------------------------------------------------------------
  x    -0.00002     0.00002     0.00001     0.00725     0.00000     0.00018
  y    -0.00072    -0.00014    -0.00079     0.00000     0.00019    -0.00000
  z    -0.00023    -0.00009     0.00045    -0.00000     0.00210     0.00000

 BORN EFFECTIVE CHARGES (including local field effects) (in |e|, cummulative output)
 ---------------------------------------------------------------------------------
 ion    1
    1     6.66367     0.00007     0.00023
    2     0.00005     6.66123     0.00510
    3     0.00015     0.00211     5.78814
 ion    2
    1     6.65899     0.00002    -0.00011
    2    -0.00001     6.66323    -0.00393
    3    -0.00025    -0.00001     5.78807
 ion    3
    1     6.66332    -0.00007     0.00024
    2    -0.00009     6.65753    -0.00381
    3     0.00016     0.00004     5.78723
 ion    4
    1     6.64945    -0.13374     0.00409
    2    -0.03430     6.66042     0.00608
    3     0.00242     0.01777     5.78474
 ion    5
    1     6.65863     0.00889    -0.00267
    2     0.00280     6.65128    -0.00159
    3     0.00209     0.01018     5.78854
 ion    6
    1     6.65597     0.01111     0.00385
    2     0.00383     6.66680    -0.00178
    3    -0.00216     0.01004     5.78549
 ion    7
    1     6.65066     0.13365    -0.00440
    2     0.03415     6.66068     0.00571
    3    -0.00266     0.01735     5.78543
 ion    8
    1     6.66271    -0.00891     0.00271
    2    -0.00277     6.65428    -0.00153
    3    -0.00183     0.01021     5.78863
 ion    9
    1     6.65737    -0.01103    -0.00418
    2    -0.00375     6.66701    -0.00134
    3     0.00199     0.01046     5.78619
 ion   10
    1     6.66189     0.00003     0.00014
    2    -0.00001     6.65604    -0.00216
    3     0.00028     0.00062     5.78614
 ion   11
    1     6.66071    -0.00010    -0.00030
    2    -0.00006     6.66433    -0.00169
    3    -0.00018     0.00053     5.78888
 ion   12
    1     6.66099     0.00009    -0.00032
    2     0.00007     6.66122     0.00198
    3    -0.00019    -0.00147     5.78820
 ion   13
    1     6.65258    -0.00163    -0.00830
    2    -0.00038     6.64921     0.00353
    3    -0.00172     0.00265     5.79873
 ion   14
    1     6.66212    -0.00233     0.00602
    2    -0.00052     6.66728     0.00377
    3     0.00186     0.00421     5.77744
 ion   15
    1     6.65925     0.00334    -0.00039
    2     0.00060     6.66118     0.00078
    3     0.00006    -0.00554     5.78740
 ion   16
    1     6.65670     0.00166     0.00818
    2     0.00037     6.65222     0.00358
    3     0.00146     0.00268     5.79880
 ion   17
    1     6.66341     0.00244    -0.00578
    2     0.00058     6.66748     0.00336
    3    -0.00169     0.00380     5.77812
 ion   18
    1     6.66059    -0.00340     0.00064
    2    -0.00064     6.66143     0.00117
    3     0.00010    -0.00512     5.78810
 ion   19
    1     6.65908    -0.00009    -0.00131
    2     0.00177     6.65374     0.00343
    3     0.00133     0.00058     5.79057
 ion   20
    1     6.65760     0.00031     0.00125
    2     0.00156     6.66333     0.00270
    3    -0.00137     0.00007     5.78511
 ion   21
    1     6.65962    -0.00042    -0.00009
    2    -0.00070     6.66080    -0.00210
    3    -0.00001    -0.00065     5.78762
 ion   22
    1     6.66314     0.00008     0.00137
    2    -0.00177     6.65673     0.00346
    3    -0.00108     0.00054     5.79067
 ion   23
    1     6.65891    -0.00024    -0.00153
    2    -0.00158     6.66350     0.00304
    3     0.00118     0.00045     5.78578
 ion   24
    1     6.66098     0.00037    -0.00015
    2     0.00062     6.66109    -0.00251
    3    -0.00020    -0.00112     5.78831
 ion   25
    1     6.66093     0.00004    -0.00010
    2    -0.00003     6.64579    -0.00320
    3    -0.00023     0.00103     5.79623
 ion   26
    1     6.65981    -0.00007     0.00025
    2    -0.00009     6.67335    -0.00272
    3     0.00017    -0.00130     5.78199
 ion   27
    1     6.66071     0.00004     0.00029
    2     0.00006     6.66122    -0.00378
    3     0.00018    -0.00157     5.78832
 ion   28
    1     6.65892     0.00276    -0.00128
    2     0.00052     6.66072    -0.00724
    3    -0.00062    -0.00255     5.78746
 ion   29
    1     6.65336    -0.00051    -0.00099
    2    -0.00227     6.65994     0.00540
    3    -0.00022    -0.00069     5.78702
 ion   30
    1     6.66302    -0.00070     0.00122
    2    -0.00257     6.65787     0.00587
    3     0.00014    -0.00010     5.78787
 ion   31
    1     6.66026    -0.00282     0.00147
    2    -0.00056     6.66098    -0.00688
    3     0.00079    -0.00213     5.78818
 ion   32
    1     6.65747     0.00054     0.00080
    2     0.00227     6.66293     0.00535
    3    -0.00003    -0.00067     5.78711
 ion   33
    1     6.66434     0.00085    -0.00098
    2     0.00267     6.65799     0.00544
    3     0.00005    -0.00054     5.78854
 ion   34
    1     6.65360     0.00013    -0.00033
    2     0.00009     6.65859    -0.05905
    3    -0.00022    -0.09832     5.78041
 ion   35
    1     6.65835    -0.00001     0.00012
    2     0.00000     6.65774     0.00894
    3     0.00026    -0.00986     5.78383
 ion   36
    1     6.66281    -0.00010    -0.00029
    2    -0.00005     6.66392     0.01036
    3    -0.00016    -0.00970     5.79094
 ion   37
    1    -5.53802     0.00002     0.00106
    2    -0.01185    -1.12296     0.00651
    3     0.00017     0.00572    -2.89310
 ion   38
    1    -5.53599    -0.00005     0.00172
    2     0.00616    -1.12221    -0.00178
    3     0.00088     0.00004    -2.89328
 ion   39
    1    -5.53997     0.00004    -0.00190
    2     0.00701    -1.12343    -0.00199
    3    -0.00098     0.00007    -2.89379
 ion   40
    1    -5.53695     0.00011    -0.00107
    2     0.01195    -1.12301     0.00655
    3    -0.00042     0.00576    -2.89322
 ion   41
    1    -5.53509     0.00001    -0.00173
    2    -0.00617    -1.12233    -0.00179
    3    -0.00114     0.00002    -2.89389
 ion   42
    1    -5.53883    -0.00019     0.00190
    2    -0.00708    -1.12347    -0.00201
    3     0.00067     0.00005    -2.89385
 ion   43
    1    -5.50966     0.00012     0.00011
    2     0.00007    -1.12771     0.02546
    3     0.00030     0.02655    -2.88219
 ion   44
    1    -5.53868     0.00002     0.00008
    2    -0.00001    -1.12262    -0.00154
    3     0.00026    -0.00025    -2.89186
 ion   45
    1    -5.53250     0.00011     0.00010
    2     0.00007    -1.12351    -0.00216
    3     0.00032    -0.00004    -2.89564
 ion   46
    1    -1.12366    -0.00006     0.00001
    2    -0.00012    -5.53650    -0.00400
    3    -0.00001    -0.00170    -2.89380
 ion   47
    1    -1.12360     0.00000    -0.00002
    2     0.00002    -5.54012     0.00223
    3    -0.00004     0.00110    -2.89358
 ion   48
    1    -1.12336     0.00004    -0.00002
    2     0.00014    -5.53486     0.00213
    3    -0.00000     0.00083    -2.89408
 ion   49
    1    -1.12225     0.00452     0.00069
    2    -0.00469    -5.53600    -0.00956
    3     0.00024    -0.01115    -2.89384
 ion   50
    1    -1.12264    -0.00273    -0.00139
    2     0.00094    -5.54083     0.00636
    3     0.00021     0.00517    -2.89396
 ion   51
    1    -1.12163    -0.00338     0.00187
    2     0.00103    -5.53373     0.00683
    3    -0.00035     0.00548    -2.89278
 ion   52
    1    -1.12341    -0.00450    -0.00068
    2     0.00481    -5.53617    -0.00953
    3    -0.00024    -0.01110    -2.89390
 ion   53
    1    -1.12389     0.00268     0.00144
    2    -0.00097    -5.54113     0.00631
    3    -0.00018     0.00514    -2.89456
 ion   54
    1    -1.12278     0.00331    -0.00183
    2    -0.00118    -5.53391     0.00676
    3     0.00033     0.00542    -2.89283
 ion   55
    1    -1.12278     0.00003     0.00002
    2     0.00003    -5.53310     0.00171
    3     0.00002    -0.00073    -2.89374
 ion   56
    1    -1.12418     0.00005    -0.00001
    2     0.00012    -5.54164     0.00099
    3     0.00000    -0.00022    -2.89379
 ion   57
    1    -1.12343    -0.00007     0.00001
    2    -0.00012    -5.53706    -0.00121
    3     0.00002     0.00008    -2.89407
 ion   58
    1    -1.13476    -0.01749     0.00746
    2     0.01296    -5.53677    -0.01206
    3    -0.00009    -0.00257    -2.90070
 ion   59
    1    -1.11075    -0.01390    -0.00614
    2     0.01142    -5.53587    -0.01093
    3    -0.00007    -0.00178    -2.88701
 ion   60
    1    -1.12221    -0.00551     0.00007
    2    -0.00069    -5.53726    -0.00134
    3    -0.00003    -0.00673    -2.89390
 ion   61
    1    -1.13600     0.01748    -0.00750
    2    -0.01294    -5.53708    -0.01209
    3     0.00008    -0.00256    -2.90128
 ion   62
    1    -1.11193     0.01391     0.00612
    2    -0.01150    -5.53609    -0.01091
    3     0.00006    -0.00173    -2.88705
 ion   63
    1    -1.12334     0.00559    -0.00009
    2     0.00083    -5.53736    -0.00143
    3     0.00001    -0.00681    -2.89397
 ion   64
    1    -5.53829     0.00004     0.00103
    2    -0.00211    -1.12214    -0.00064
    3    -0.00401     0.00010    -2.89459
 ion   65
    1    -5.53759    -0.00004    -0.00116
    2    -0.00180    -1.12342    -0.00068
    3     0.00312    -0.00018    -2.89326
 ion   66
    1    -5.53787    -0.00003     0.00005
    2     0.00184    -1.12350     0.00042
    3     0.00004     0.00004    -2.89401
 ion   67
    1    -5.53736    -0.00008    -0.00100
    2     0.00209    -1.12228    -0.00066
    3     0.00426     0.00011    -2.89522
 ion   68
    1    -5.53652    -0.00009     0.00126
    2     0.00173    -1.12343    -0.00067
    3    -0.00279    -0.00014    -2.89336
 ion   69
    1    -5.53673     0.00013     0.00001
    2    -0.00178    -1.12352     0.00043
    3     0.00028     0.00003    -2.89409
 ion   70
    1    -5.53231    -0.00001    -0.00005
    2     0.00001    -1.12231     0.00280
    3    -0.00025     0.00009    -2.89973
 ion   71
    1    -5.53885     0.00012    -0.00010
    2     0.00007    -1.12345     0.00209
    3    -0.00031    -0.00009    -2.88982
 ion   72
    1    -5.53614    -0.00014    -0.00007
    2    -0.00008    -1.12355     0.00050
    3    -0.00031    -0.00002    -2.89418
 ion   73
    1    -5.53765     0.00001     0.00004
    2    -0.00001    -1.12229    -0.00040
    3     0.00026    -0.00025    -2.89369
 ion   74
    1    -5.53630     0.00013     0.00009
    2     0.00009    -1.12344    -0.00035
    3     0.00033    -0.00012    -2.89425
 ion   75
    1    -5.53689    -0.00015     0.00008
    2    -0.00008    -1.12351     0.00036
    3     0.00033     0.00038    -2.89393
 ion   76
    1    -5.53890    -0.00006     0.00253
    2     0.00270    -1.12217    -0.00047
    3     0.00066    -0.00022    -2.89586
 ion   77
    1    -5.53621     0.00004    -0.00190
    2     0.00242    -1.12341    -0.00043
    3    -0.00112    -0.00003    -2.89201
 ion   78
    1    -5.53771     0.00002     0.00013
    2    -0.00094    -1.12348     0.00098
    3     0.00000     0.00064    -2.89382
 ion   79
    1    -5.53797     0.00004    -0.00259
    2    -0.00269    -1.12229    -0.00048
    3    -0.00095    -0.00024    -2.89646
 ion   80
    1    -5.53513    -0.00018     0.00183
    2    -0.00250    -1.12346    -0.00044
    3     0.00081    -0.00008    -2.89210
 ion   81
    1    -5.53664     0.00014    -0.00023
    2     0.00101    -1.12350     0.00099
    3    -0.00030     0.00069    -2.89393
 ion   82
    1    -1.12311    -0.00036     0.00011
    2     0.00055    -5.53367    -0.00211
    3     0.00026    -0.00062    -2.89443
 ion   83
    1    -1.12130    -0.00059    -0.00005
    2     0.00054    -5.54063    -0.00168
    3    -0.00031    -0.00057    -2.89283
 ion   84
    1    -1.12225     0.00132     0.00001
    2     0.00019    -5.53692     0.00109
    3    -0.00001     0.00084    -2.89387
 ion   85
    1    -1.12435     0.00029    -0.00007
    2    -0.00057    -5.53391    -0.00213
    3    -0.00022    -0.00061    -2.89502
 ion   86
    1    -1.12242     0.00051     0.00008
    2    -0.00070    -5.54081    -0.00164
    3     0.00032    -0.00061    -2.89289
 ion   87
    1    -1.12342    -0.00129    -0.00002
    2    -0.00005    -5.53702     0.00115
    3     0.00003     0.00091    -2.89393
 ion   88
    1    -1.11849     0.00000    -0.00004
    2    -0.00001    -5.53284     0.00988
    3    -0.00003     0.00688    -2.89515
 ion   89
    1    -1.12787     0.00005    -0.00000
    2     0.00018    -5.54037     0.00959
    3     0.00001     0.00795    -2.89229
 ion   90
    1    -1.12345    -0.00006    -0.00000
    2    -0.00013    -5.53728     0.00096
    3     0.00000     0.00698    -2.89388
 ion   91
    1    -1.12236    -0.00094     0.00034
    2    -0.00047    -5.53640     0.00279
    3     0.00003    -0.00158    -2.89422
 ion   92
    1    -1.12215     0.00035    -0.00012
    2    -0.00005    -5.53943    -0.00226
    3    -0.00000     0.00063    -2.89297
 ion   93
    1    -1.12238     0.00054     0.00011
    2    -0.00004    -5.53487    -0.00224
    3    -0.00001     0.00098    -2.89465
 ion   94
    1    -1.12351     0.00099    -0.00028
    2     0.00063    -5.53655     0.00270
    3    -0.00005    -0.00162    -2.89430
 ion   95
    1    -1.12342    -0.00038     0.00012
    2     0.00008    -5.53975    -0.00217
    3    -0.00005     0.00065    -2.89354
 ion   96
    1    -1.12348    -0.00061    -0.00012
    2    -0.00008    -5.53500    -0.00219
    3    -0.00002     0.00107    -2.89472
 ion   97
    1    -1.12278    -0.00007    -0.00000
    2    -0.00012    -5.53512     0.02621
    3    -0.00000     0.00727    -2.89497
 ion   98
    1    -1.12288    -0.00001     0.00002
    2    -0.00003    -5.54117    -0.00572
    3     0.00002     0.00137    -2.89445
 ion   99
    1    -1.12392     0.00005     0.00006
    2     0.00015    -5.53345    -0.00614
    3     0.00000     0.00097    -2.89357
 ion  100
    1    -5.53825    -0.00015    -0.00006
    2    -0.00008    -1.12325     0.00359
    3    -0.00030     0.00006    -2.89421
 ion  101
    1    -5.53508     0.00002    -0.00002
    2    -0.00002    -1.12235    -0.00106
    3    -0.00025     0.00001    -2.89496
 ion  102
    1    -5.53856     0.00009    -0.00003
    2     0.00005    -1.12350    -0.00113
    3    -0.00031     0.00000    -2.89285
 ion  103
    1    -5.53602     0.00002    -0.00218
    2     0.00628    -1.12269     0.00587
    3    -0.00190     0.00012    -2.89382
 ion  104
    1    -5.53472    -0.00001     0.00177
    2    -0.00278    -1.12223    -0.00321
    3    -0.00027     0.00005    -2.89394
 ion  105
    1    -5.54036     0.00001    -0.00214
    2    -0.00312    -1.12342    -0.00367
    3     0.00014    -0.00005    -2.89313
 ion  106
    1    -5.53488     0.00007     0.00235
    2    -0.00625    -1.12270     0.00585
    3     0.00226     0.00010    -2.89388
 ion  107
    1    -5.53385    -0.00004    -0.00166
    2     0.00275    -1.12237    -0.00321
    3     0.00053     0.00005    -2.89457
 ion  108
    1    -5.53928    -0.00011     0.00226
    2     0.00302    -1.12347    -0.00370
    3     0.00021    -0.00003    -2.89322


--------------------------------------------------------------------------------------------------------


     LOOP+:  cpu time   2256.9238: real time   2291.9567
    4ORBIT:  cpu time      0.0000: real time      0.0000

 total amount of memory used by VASP MPI-rank0   266725. kBytes
=======================================================================

   base      :      30000. kBytes
   nonlr-proj:      19556. kBytes
   fftplans  :      10927. kBytes
   grid      :      23181. kBytes
   one-center:       1679. kBytes
   wavefun   :     181382. kBytes



 General timing and accounting informations for this job:
 ========================================================

                  Total CPU time used (sec):     2267.573
                            User time (sec):     2229.794
                          System time (sec):       37.778
                         Elapsed time (sec):     2311.233

                   Maximum memory used (kb):     1096756.
                   Average memory used (kb):          N/A

                          Minor page faults:      1053363
                          Major page faults:            9
                 Voluntary context switches:       105988
