 vasp.6.3.0 20Jan22 (build Mar 29 2022 16:24:06) complex

 executed on             Bridges2 date 2023.01.12  19:12:16
 running on   32 total cores
 distrk:  each k-point on    4 cores,    8 groups
 distr:  one band on NCORE=   1 cores,    4 groups


--------------------------------------------------------------------------------------------------------


 INCAR:
   ICHARG = 2
   LWAVE = .FALSE.
   LCHARG = .FALSE.
   LVTOT = .FALSE.
   NCORE = 1
   KPAR = 8
   EDIFF = 1E-7
   NELM = 80
   PREC = Normal
   LREAL = Auto
   NELMIN = 4
   ENCUT = 400.0 eV
   ISPIN = 1
   ISMEAR = 0
   SIGMA = 0.10
   NSW = 0
   LEPSILON = .TRUE.
   LPEAD = .TRUE.
   ISYM = 0

 POTCAR:    PAW_PBE Ti_pv 07Sep2000
 POTCAR:    PAW_PBE O 08Apr2002
 -----------------------------------------------------------------------------
|                                                                             |
|           W    W    AA    RRRRR   N    N  II  N    N   GGGG   !!!           |
|           W    W   A  A   R    R  NN   N  II  NN   N  G    G  !!!           |
|           W    W  A    A  R    R  N N  N  II  N N  N  G       !!!           |
|           W WW W  AAAAAA  RRRRR   N  N N  II  N  N N  G  GGG   !            |
|           WW  WW  A    A  R   R   N   NN  II  N   NN  G    G                |
|           W    W  A    A  R    R  N    N  II  N    N   GGGG   !!!           |
|                                                                             |
|     For optimal performance we recommend to set                             |
|       NCORE = 2 up to number-of-cores-per-socket                            |
|     NCORE specifies how many cores store one orbital (NPAR=cpu/NCORE).      |
|     This setting can greatly improve the performance of VASP for DFT.       |
|     The default, NCORE=1 might be grossly inefficient on modern             |
|     multi-core architectures or massively parallel machines. Do your        |
|     own testing! More info at https://www.vasp.at/wiki/index.php/NCORE      |
|     Unfortunately you need to use the default for GW and RPA                |
|     calculations (for HF NCORE is supported but not extensively tested      |
|     yet).                                                                   |
|                                                                             |
 -----------------------------------------------------------------------------

 POTCAR:    PAW_PBE Ti_pv 07Sep2000
   VRHFIN =Ti: d3 s1
   LEXCH  = PE
   EATOM  =  1042.5995 eV,   76.6289 Ry

   TITEL  = PAW_PBE Ti_pv 07Sep2000
   LULTRA =        F    use ultrasoft PP ?
   IUNSCR =        1    unscreen: 0-lin 1-nonlin 2-no
   RPACOR =    2.200    partial core radius
   POMASS =   47.880; ZVAL   =   10.000    mass and valenz
   RCORE  =    2.500    outmost cutoff radius
   RWIGS  =    2.500; RWIGS  =    1.323    wigner-seitz radius (au A)
   ENMAX  =  222.335; ENMIN  =  166.751 eV
   RCLOC  =    1.701    cutoff for local pot
   LCOR   =        T    correct aug charges
   LPAW   =        T    paw PP
   EAUG   =  482.848
   DEXC   =    0.000
   RMAX   =    2.564    core radius for proj-oper
   RAUG   =    1.300    factor for augmentation sphere
   RDEP   =    2.538    radius for radial grids
   RDEPT  =    1.952    core radius for aug-charge

   Atomic configuration
    8 entries
     n  l   j            E        occ.
     1  0  0.50     -4865.3608   2.0000
     2  0  0.50      -533.1368   2.0000
     2  1  1.50      -440.5031   6.0000
     3  0  0.50       -59.3186   2.0000
     3  1  1.50       -35.7012   6.0000
     3  2  2.50        -1.9157   3.0000
     4  0  0.50        -3.7291   1.0000
     4  3  2.50        -1.3606   0.0000
   Description
     l       E           TYP  RCUT    TYP  RCUT
     1    -35.7012140     23  2.300
     1     -1.3605826     23  2.300
     2     -1.9156996     23  2.500
     2     -0.4063033     23  2.500
     0     -3.7290856     23  2.500
     0     20.4087390     23  2.500
  local pseudopotential read in
  partial core-charges read in
  partial kinetic energy density read in
  atomic valenz-charges read in
  non local Contribution for L=           1  read in
    real space projection operators read in
  non local Contribution for L=           1  read in
    real space projection operators read in
  non local Contribution for L=           2  read in
    real space projection operators read in
  non local Contribution for L=           2  read in
    real space projection operators read in
  non local Contribution for L=           0  read in
    real space projection operators read in
  non local Contribution for L=           0  read in
    real space projection operators read in
    PAW grid and wavefunctions read in

   number of l-projection  operators is LMAX  =           6
   number of lm-projection operators is LMMAX =          18

 POTCAR:    PAW_PBE O 08Apr2002
   VRHFIN =O: s2p4
   LEXCH  = PE
   EATOM  =   432.3788 eV,   31.7789 Ry

   TITEL  = PAW_PBE O 08Apr2002
   LULTRA =        F    use ultrasoft PP ?
   IUNSCR =        1    unscreen: 0-lin 1-nonlin 2-no
   RPACOR =    1.200    partial core radius
   POMASS =   16.000; ZVAL   =    6.000    mass and valenz
   RCORE  =    1.520    outmost cutoff radius
   RWIGS  =    1.550; RWIGS  =    0.820    wigner-seitz radius (au A)
   ENMAX  =  400.000; ENMIN  =  300.000 eV
   ICORE  =        2    local potential
   LCOR   =        T    correct aug charges
   LPAW   =        T    paw PP
   EAUG   =  605.392
   DEXC   =    0.000
   RMAX   =    1.553    core radius for proj-oper
   RAUG   =    1.300    factor for augmentation sphere
   RDEP   =    1.550    radius for radial grids
   RDEPT  =    1.329    core radius for aug-charge

   Atomic configuration
    4 entries
     n  l   j            E        occ.
     1  0  0.50      -514.6923   2.0000
     2  0  0.50       -23.9615   2.0000
     2  1  0.50        -9.0305   4.0000
     3  2  1.50        -9.5241   0.0000
   Description
     l       E           TYP  RCUT    TYP  RCUT
     0    -23.9615318     23  1.200
     0     -9.5240782     23  1.200
     1     -9.0304911     23  1.520
     1      8.1634956     23  1.520
     2     -9.5240782      7  1.500
  local pseudopotential read in
  partial core-charges read in
  partial kinetic energy density read in
  kinetic energy density of atom read in
  atomic valenz-charges read in
  non local Contribution for L=           0  read in
    real space projection operators read in
  non local Contribution for L=           0  read in
    real space projection operators read in
  non local Contribution for L=           1  read in
    real space projection operators read in
  non local Contribution for L=           1  read in
    real space projection operators read in
    PAW grid and wavefunctions read in

   number of l-projection  operators is LMAX  =           4
   number of lm-projection operators is LMMAX =           8

 Optimization of the real space projectors (new method)

 maximal supplied QI-value         = 15.12
 optimisation between [QCUT,QGAM] = [ 10.13, 20.41] = [ 28.73,116.64] Ry
 Optimized for a Real-space Cutoff    1.51 Angstroem

   l    n(q)    QCUT    max X(q) W(low)/X(q) W(high)/X(q)  e(spline)
   1      9    10.129     4.216    0.12E-04    0.72E-04    0.60E-07
   1      9    10.129     5.422    0.84E-04    0.21E-03    0.15E-06
   2      8    10.129    72.084    0.33E-03    0.35E-04    0.17E-06
   2      8    10.129    65.965    0.33E-03    0.37E-04    0.17E-06
   0      9    10.129    41.531    0.17E-03    0.19E-03    0.81E-07
   0      9    10.129    16.290    0.12E-03    0.14E-03    0.64E-07
 Optimization of the real space projectors (new method)

 maximal supplied QI-value         = 24.76
 optimisation between [QCUT,QGAM] = [ 10.15, 20.30] = [ 28.85,115.39] Ry
 Optimized for a Real-space Cutoff    1.38 Angstroem

   l    n(q)    QCUT    max X(q) W(low)/X(q) W(high)/X(q)  e(spline)
   0      8    10.150    20.381    0.22E-03    0.32E-03    0.29E-06
   0      8    10.150    15.268    0.23E-03    0.35E-03    0.30E-06
   1      8    10.150     5.964    0.46E-03    0.53E-03    0.21E-06
   1      8    10.150     5.382    0.38E-03    0.45E-03    0.19E-06
  PAW_PBE Ti_pv 07Sep2000               :
 energy of atom  1       EATOM=-1042.5995
 kinetic energy error for atom=    0.0037 (will be added to EATOM!!)
  PAW_PBE O 08Apr2002                   :
 energy of atom  2       EATOM= -432.3788
 kinetic energy error for atom=    0.1156 (will be added to EATOM!!)


 POSCAR: Ti4 O8
  positions in cartesian coordinates
  No initial velocities read in
 exchange correlation table for  LEXCH =        8
   RHO(1)=    0.500       N(1)  =     2000
   RHO(2)=  100.500       N(2)  =     4000



--------------------------------------------------------------------------------------------------------


 ion  position               nearest neighbor table
   1  0.167  0.167  0.500-  56 1.94  55 1.94  40 1.94  37 1.94 100 2.00  46 2.00  31 3.06  28 3.06
                            11 3.06  10 3.06
   2  0.167  0.500  0.500-  56 1.94  41 1.94  38 1.94  57 1.94 101 2.00  47 2.00  11 3.06  32 3.06
                            29 3.06  12 3.06
   3  0.167  0.833  0.500-  57 1.94  42 1.94  39 1.94  55 1.94 102 2.00  48 2.00  12 3.06  33 3.06
                            30 3.06  10 3.06
   4  0.500  0.167  0.500-  43 1.84  40 1.94  59 1.94  58 1.94 103 2.00  49 2.00  31 3.06  14 3.06
                            13 3.06  34 3.06
   5  0.500  0.500  0.500-  59 1.94  41 1.94  60 1.94  44 1.94 104 2.00  50 2.00  32 3.06  14 3.06
                            35 3.06  15 3.06
   6  0.500  0.833  0.500-  60 1.94  42 1.94  58 1.94  45 1.94 105 2.00  51 2.00  15 3.06  33 3.06
                            13 3.06  36 3.06
   7  0.833  0.167  0.500-  62 1.94  61 1.94  37 1.94 106 2.00  52 2.00  43 2.04  34 3.06  17 3.06
                            16 3.06  28 3.06
   8  0.833  0.500  0.500-  44 1.94  62 1.94  63 1.94  38 1.94 107 2.00  53 2.00  35 3.06  17 3.06
                            29 3.06  18 3.06
   9  0.833  0.833  0.500-  63 1.94  45 1.94  61 1.94  39 1.94 108 2.00  54 2.00  36 3.06  18 3.06
                            30 3.06  16 3.06
  10  0.167  0.000  0.750-  67 1.94  64 1.94  46 1.94  48 1.94  73 2.00  55 2.00  22 3.06  19 3.06
                             1 3.06   3 3.06
  11  0.167  0.333  0.750-  47 1.94  46 1.94  68 1.94  65 1.94  74 2.00  56 2.00   2 3.06  23 3.06
                            20 3.06   1 3.06
  12  0.167  0.667  0.750-  48 1.94  69 1.94  66 1.94  47 1.94  75 2.00  57 2.00   3 3.06  24 3.06
                            21 3.06   2 3.06
  13  0.500  0.000  0.750-  67 1.94  49 1.94  51 1.94  70 1.94  76 2.00  58 2.00  22 3.06   4 3.06
                            25 3.06   6 3.06
  14  0.500  0.333  0.750-  50 1.94  68 1.94  49 1.94  71 1.94  77 2.00  59 2.00  23 3.06   5 3.06
                             4 3.06  26 3.06
  15  0.500  0.667  0.750-  51 1.94  69 1.94  50 1.94  72 1.94  78 2.00  60 2.00   6 3.06  24 3.06
                            27 3.06   5 3.06
  16  0.833  0.000  0.750-  70 1.94  52 1.94  64 1.94  54 1.94  79 2.00  61 2.00  25 3.06   7 3.06
                            19 3.06   9 3.06
  17  0.833  0.333  0.750-  71 1.94  53 1.94  52 1.94  65 1.94  80 2.00  62 2.00  26 3.06   8 3.06
                             7 3.06  20 3.06
  18  0.833  0.667  0.750-  54 1.94  72 1.94  66 1.94  53 1.94  81 2.00  63 2.00  27 3.06   9 3.06
                            21 3.06   8 3.06
  19  0.000  0.000  0.000-  73 1.94  91 1.94  79 1.94  93 1.94  82 2.00  64 2.00  10 3.06  28 3.06
                            16 3.06  30 3.06
  20  0.000  0.333  0.000-  92 1.94  74 1.94  91 1.94  80 1.94  83 2.00  65 2.00  29 3.06  11 3.06
                            28 3.06  17 3.06
  21  0.000  0.667  0.000-  93 1.94  75 1.94  81 1.94  92 1.94  84 2.00  66 2.00  30 3.06  12 3.06
                            18 3.06  29 3.06
  22  0.333  0.000  0.000-  76 1.94  73 1.94  94 1.94  96 1.94  85 2.00  67 2.00  13 3.06  10 3.06
                            31 3.06  33 3.06
  23  0.333  0.333  0.000-  77 1.94  95 1.94  74 1.94  94 1.94  86 2.00  68 2.00  14 3.06  32 3.06
                            11 3.06  31 3.06
  24  0.333  0.667  0.000-  96 1.94  78 1.94  75 1.94  95 1.94  87 2.00  69 2.00  33 3.06  15 3.06
                            12 3.06  32 3.06
  25  0.667  0.000  0.000-  79 1.94  97 1.94  76 1.94  99 1.94  88 2.00  70 2.00  16 3.06  34 3.06
                            13 3.06  36 3.06
  26  0.667  0.333  0.000-  80 1.94  98 1.94  97 1.94  77 1.94  89 2.00  71 2.00  17 3.06  35 3.06
                            34 3.06  14 3.06
  27  0.667  0.667  0.000-  81 1.94  99 1.94  78 1.94  98 1.94  90 2.00  72 2.00  18 3.06  36 3.06
                            15 3.06  35 3.06
  28  0.000  0.167  0.250-  83 1.94  82 1.94 100 1.94 106 1.94  37 2.00  91 2.00   1 3.06  20 3.06
                            19 3.06   7 3.06
  29  0.000  0.500  0.250-  83 1.94 101 1.94  84 1.94 107 1.94  38 2.00  92 2.00  20 3.06   2 3.06
                             8 3.06  21 3.06
  30  0.000  0.833  0.250-  84 1.94 102 1.94  82 1.94 108 1.94  39 2.00  93 2.00  21 3.06   3 3.06
                             9 3.06  19 3.06
  31  0.333  0.167  0.250- 103 1.94  86 1.94  85 1.94 100 1.94  40 2.00  94 2.00   4 3.06   1 3.06
                            23 3.06  22 3.06
  32  0.333  0.500  0.250-  86 1.94 104 1.94 101 1.94  87 1.94  41 2.00  95 2.00   5 3.06  23 3.06
                             2 3.06  24 3.06
  33  0.333  0.833  0.250-  87 1.94 105 1.94 102 1.94  85 1.94  42 2.00  96 2.00  24 3.06   6 3.06
                             3 3.06  22 3.06
  34  0.667  0.167  0.250- 106 1.94  89 1.94  88 1.94 103 1.94  97 2.00  43 2.00   7 3.06  26 3.06
                            25 3.06   4 3.06
  35  0.667  0.500  0.250- 107 1.94  89 1.94  90 1.94 104 1.94  44 2.00  98 2.00   8 3.06  26 3.06
                             5 3.06  27 3.06
  36  0.667  0.833  0.250-  90 1.94 108 1.94  88 1.94 105 1.94  45 2.00  99 2.00   9 3.06  27 3.06
                            25 3.06   6 3.06
  37  0.000  0.167  0.458-   1 1.94   7 1.94  28 2.00
  38  0.000  0.500  0.458-   2 1.94   8 1.94  29 2.00
  39  0.000  0.833  0.458-   3 1.94   9 1.94  30 2.00
  40  0.333  0.167  0.458-   4 1.94   1 1.94  31 2.00
  41  0.333  0.500  0.458-   5 1.94   2 1.94  32 2.00
  42  0.333  0.833  0.458-   6 1.94   3 1.94  33 2.00
  43  0.658  0.167  0.458-   4 1.84  34 2.00   7 2.04
  44  0.667  0.500  0.458-   8 1.94   5 1.94  35 2.00
  45  0.667  0.833  0.458-   9 1.94   6 1.94  36 2.00
  46  0.167  0.167  0.708-  11 1.94  10 1.94   1 2.00
  47  0.167  0.500  0.708-  11 1.94  12 1.94   2 2.00
  48  0.167  0.833  0.708-  12 1.94  10 1.94   3 2.00
  49  0.500  0.167  0.708-  14 1.94  13 1.94   4 2.00
  50  0.500  0.500  0.708-  14 1.94  15 1.94   5 2.00
  51  0.500  0.833  0.708-  15 1.94  13 1.94   6 2.00
  52  0.833  0.167  0.708-  17 1.94  16 1.94   7 2.00
  53  0.833  0.500  0.708-  17 1.94  18 1.94   8 2.00
  54  0.833  0.833  0.708-  18 1.94  16 1.94   9 2.00
  55  0.167  0.000  0.542-   1 1.94   3 1.94  10 2.00
  56  0.167  0.333  0.542-   2 1.94   1 1.94  11 2.00
  57  0.167  0.667  0.542-   3 1.94   2 1.94  12 2.00
  58  0.500  0.000  0.542-   4 1.94   6 1.94  13 2.00
  59  0.500  0.333  0.542-   5 1.94   4 1.94  14 2.00
  60  0.500  0.667  0.542-   6 1.94   5 1.94  15 2.00
  61  0.833  0.000  0.542-   7 1.94   9 1.94  16 2.00
  62  0.833  0.333  0.542-   8 1.94   7 1.94  17 2.00
  63  0.833  0.667  0.542-   9 1.94   8 1.94  18 2.00
  64  0.000  0.000  0.792-  10 1.94  16 1.94  19 2.00
  65  0.000  0.333  0.792-  11 1.94  17 1.94  20 2.00
  66  0.000  0.667  0.792-  12 1.94  18 1.94  21 2.00
  67  0.333  0.000  0.792-  13 1.94  10 1.94  22 2.00
  68  0.333  0.333  0.792-  14 1.94  11 1.94  23 2.00
  69  0.333  0.667  0.792-  15 1.94  12 1.94  24 2.00
  70  0.667  0.000  0.792-  16 1.94  13 1.94  25 2.00
  71  0.667  0.333  0.792-  17 1.94  14 1.94  26 2.00
  72  0.667  0.667  0.792-  18 1.94  15 1.94  27 2.00
  73  0.167  0.000  0.958-  22 1.94  19 1.94  10 2.00
  74  0.167  0.333  0.958-  23 1.94  20 1.94  11 2.00
  75  0.167  0.667  0.958-  24 1.94  21 1.94  12 2.00
  76  0.500  0.000  0.958-  22 1.94  25 1.94  13 2.00
  77  0.500  0.333  0.958-  23 1.94  26 1.94  14 2.00
  78  0.500  0.667  0.958-  24 1.94  27 1.94  15 2.00
  79  0.833  0.000  0.958-  25 1.94  19 1.94  16 2.00
  80  0.833  0.333  0.958-  26 1.94  20 1.94  17 2.00
  81  0.833  0.667  0.958-  27 1.94  21 1.94  18 2.00
  82  0.000  0.000  0.208-  28 1.94  30 1.94  19 2.00
  83  0.000  0.333  0.208-  29 1.94  28 1.94  20 2.00
  84  0.000  0.667  0.208-  30 1.94  29 1.94  21 2.00
  85  0.333  0.000  0.208-  31 1.94  33 1.94  22 2.00
  86  0.333  0.333  0.208-  32 1.94  31 1.94  23 2.00
  87  0.333  0.667  0.208-  33 1.94  32 1.94  24 2.00
  88  0.667  0.000  0.208-  34 1.94  36 1.94  25 2.00
  89  0.667  0.333  0.208-  35 1.94  34 1.94  26 2.00
  90  0.667  0.667  0.208-  36 1.94  35 1.94  27 2.00
  91  0.000  0.167  0.042-  20 1.94  19 1.94  28 2.00
  92  0.000  0.500  0.042-  20 1.94  21 1.94  29 2.00
  93  0.000  0.833  0.042-  21 1.94  19 1.94  30 2.00
  94  0.333  0.167  0.042-  23 1.94  22 1.94  31 2.00
  95  0.333  0.500  0.042-  23 1.94  24 1.94  32 2.00
  96  0.333  0.833  0.042-  24 1.94  22 1.94  33 2.00
  97  0.667  0.167  0.042-  26 1.94  25 1.94  34 2.00
  98  0.667  0.500  0.042-  26 1.94  27 1.94  35 2.00
  99  0.667  0.833  0.042-  27 1.94  25 1.94  36 2.00
 100  0.167  0.167  0.292-  31 1.94  28 1.94   1 2.00
 101  0.167  0.500  0.292-  32 1.94  29 1.94   2 2.00
 102  0.167  0.833  0.292-  33 1.94  30 1.94   3 2.00
 103  0.500  0.167  0.292-  31 1.94  34 1.94   4 2.00
 104  0.500  0.500  0.292-  32 1.94  35 1.94   5 2.00
 105  0.500  0.833  0.292-  33 1.94  36 1.94   6 2.00
 106  0.833  0.167  0.292-  34 1.94  28 1.94   7 2.00
 107  0.833  0.500  0.292-  35 1.94  29 1.94   8 2.00
 108  0.833  0.833  0.292-  36 1.94  30 1.94   9 2.00


IMPORTANT INFORMATION: All symmetrisations will be switched off!
NOSYMM: (Re-)initialisation of all symmetry stuff for point group C_1.


----------------------------------------------------------------------------------------

                                     Primitive cell

  volume of cell :    1243.1447

  direct lattice vectors                    reciprocal lattice vectors
    11.376843452  0.000000000  0.000000000     0.087897843  0.000000000  0.000000000
     0.000000000 11.376843452  0.000000000     0.000000000  0.087897843  0.000000000
     0.000000000  0.000000000  9.604574204     0.000000000  0.000000000  0.104117057

  length of vectors
    11.376843452 11.376843452  9.604574204     0.087897843  0.087897843  0.104117057

  position of ions in fractional coordinates (direct lattice)
     0.166666672  0.166666672  0.500000000
     0.166666672  0.500000000  0.500000000
     0.166666672  0.833333313  0.500000000
     0.500000000  0.166666672  0.500000000
     0.500000000  0.500000000  0.500000000
     0.500000000  0.833333313  0.500000000
     0.833333313  0.166666672  0.500000000
     0.833333313  0.500000000  0.500000000
     0.833333313  0.833333313  0.500000000
     0.166666672  0.000000000  0.750000000
     0.166666672  0.333333343  0.750000000
     0.166666672  0.666666687  0.750000000
     0.500000000  0.000000000  0.750000000
     0.500000000  0.333333343  0.750000000
     0.500000000  0.666666687  0.750000000
     0.833333313  0.000000000  0.750000000
     0.833333313  0.333333343  0.750000000
     0.833333313  0.666666687  0.750000000
     0.000000000  0.000000000  0.000000000
     0.000000000  0.333333343  0.000000000
     0.000000000  0.666666687  0.000000000
     0.333333343  0.000000000  0.000000000
     0.333333343  0.333333343  0.000000000
     0.333333343  0.666666687  0.000000000
     0.666666687  0.000000000  0.000000000
     0.666666687  0.333333343  0.000000000
     0.666666687  0.666666687  0.000000000
     0.000000000  0.166666672  0.250000000
     0.000000000  0.500000000  0.250000000
     0.000000000  0.833333313  0.250000000
     0.333333343  0.166666672  0.250000000
     0.333333343  0.500000000  0.250000000
     0.333333343  0.833333313  0.250000000
     0.666666687  0.166666672  0.250000000
     0.666666687  0.500000000  0.250000000
     0.666666687  0.833333313  0.250000000
     0.000000000  0.166666672  0.457898587
     0.000000000  0.500000000  0.457898587
     0.000000000  0.833333313  0.457898587
     0.333333343  0.166666672  0.457898587
     0.333333343  0.500000000  0.457898587
     0.333333343  0.833333313  0.457898587
     0.657876902  0.166666672  0.457898587
     0.666666687  0.500000000  0.457898587
     0.666666687  0.833333313  0.457898587
     0.166666672  0.166666672  0.707898617
     0.166666672  0.500000000  0.707898617
     0.166666672  0.833333313  0.707898617
     0.500000000  0.166666672  0.707898617
     0.500000000  0.500000000  0.707898617
     0.500000000  0.833333313  0.707898617
     0.833333313  0.166666672  0.707898617
     0.833333313  0.500000000  0.707898617
     0.833333313  0.833333313  0.707898617
     0.166666672  0.000000000  0.542101383
     0.166666672  0.333333343  0.542101383
     0.166666672  0.666666687  0.542101383
     0.500000000  0.000000000  0.542101383
     0.500000000  0.333333343  0.542101383
     0.500000000  0.666666687  0.542101383
     0.833333313  0.000000000  0.542101383
     0.833333313  0.333333343  0.542101383
     0.833333313  0.666666687  0.542101383
     0.000000000  0.000000000  0.792101383
     0.000000000  0.333333343  0.792101383
     0.000000000  0.666666687  0.792101383
     0.333333343  0.000000000  0.792101383
     0.333333343  0.333333343  0.792101383
     0.333333343  0.666666687  0.792101383
     0.666666687  0.000000000  0.792101383
     0.666666687  0.333333343  0.792101383
     0.666666687  0.666666687  0.792101383
     0.166666672  0.000000000  0.957898617
     0.166666672  0.333333343  0.957898617
     0.166666672  0.666666687  0.957898617
     0.500000000  0.000000000  0.957898617
     0.500000000  0.333333343  0.957898617
     0.500000000  0.666666687  0.957898617
     0.833333313  0.000000000  0.957898617
     0.833333313  0.333333343  0.957898617
     0.833333313  0.666666687  0.957898617
     0.000000000  0.000000000  0.207898602
     0.000000000  0.333333343  0.207898602
     0.000000000  0.666666687  0.207898602
     0.333333343  0.000000000  0.207898602
     0.333333343  0.333333343  0.207898602
     0.333333343  0.666666687  0.207898602
     0.666666687  0.000000000  0.207898602
     0.666666687  0.333333343  0.207898602
     0.666666687  0.666666687  0.207898602
     0.000000000  0.166666672  0.042101406
     0.000000000  0.500000000  0.042101406
     0.000000000  0.833333313  0.042101406
     0.333333343  0.166666672  0.042101406
     0.333333343  0.500000000  0.042101406
     0.333333343  0.833333313  0.042101406
     0.666666687  0.166666672  0.042101406
     0.666666687  0.500000000  0.042101406
     0.666666687  0.833333313  0.042101406
     0.166666672  0.166666672  0.292101413
     0.166666672  0.500000000  0.292101413
     0.166666672  0.833333313  0.292101413
     0.500000000  0.166666672  0.292101413
     0.500000000  0.500000000  0.292101413
     0.500000000  0.833333313  0.292101413
     0.833333313  0.166666672  0.292101413
     0.833333313  0.500000000  0.292101413
     0.833333313  0.833333313  0.292101413

  ion indices of the primitive-cell ions
   primitive index   ion index
                 1           1
                 2           2
                 3           3
                 4           4
                 5           5
                 6           6
                 7           7
                 8           8
                 9           9
                10          10
                11          11
                12          12
                13          13
                14          14
                15          15
                16          16
                17          17
                18          18
                19          19
                20          20
                21          21
                22          22
                23          23
                24          24
                25          25
                26          26
                27          27
                28          28
                29          29
                30          30
                31          31
                32          32
                33          33
                34          34
                35          35
                36          36
                37          37
                38          38
                39          39
                40          40
                41          41
                42          42
                43          43
                44          44
                45          45
                46          46
                47          47
                48          48
                49          49
                50          50
                51          51
                52          52
                53          53
                54          54
                55          55
                56          56
                57          57
                58          58
                59          59
                60          60
                61          61
                62          62
                63          63
                64          64
                65          65
                66          66
                67          67
                68          68
                69          69
                70          70
                71          71
                72          72
                73          73
                74          74
                75          75
                76          76
                77          77
                78          78
                79          79
                80          80
                81          81
                82          82
                83          83
                84          84
                85          85
                86          86
                87          87
                88          88
                89          89
                90          90
                91          91
                92          92
                93          93
                94          94
                95          95
                96          96
                97          97
                98          98
                99          99
               100         100
               101         101
               102         102
               103         103
               104         104
               105         105
               106         106
               107         107
               108         108

----------------------------------------------------------------------------------------



 KPOINTS: K-Points

Automatic generation of k-mesh.
 Grid dimensions read from file:
 generate k-points for:    2    2    2

 Generating k-lattice:

  Cartesian coordinates                     Fractional coordinates (reciprocal lattice)
     0.043948922  0.000000000  0.000000000     0.500000000  0.000000000  0.000000000
     0.000000000  0.043948922  0.000000000     0.000000000  0.500000000  0.000000000
     0.000000000  0.000000000  0.052058529     0.000000000  0.000000000  0.500000000

  Length of vectors
     0.043948922  0.043948922  0.052058529

  Shift w.r.t. Gamma in fractional coordinates (k-lattice)
     0.500000000  0.500000000  0.500000000


 Subroutine IBZKPT returns following result:
 ===========================================

 Found      4 irreducible k-points:

 Following reciprocal coordinates:
            Coordinates               Weight
  0.250000  0.250000  0.250000      2.000000
 -0.250000  0.250000  0.250000      2.000000
 -0.250000 -0.250000  0.250000      2.000000
  0.250000 -0.250000  0.250000      2.000000

 Following cartesian coordinates:
            Coordinates               Weight
  0.021974  0.021974  0.026029      2.000000
 -0.021974  0.021974  0.026029      2.000000
 -0.021974 -0.021974  0.026029      2.000000
  0.021974 -0.021974  0.026029      2.000000


 Subroutine IBZKPT_HF returns following result:
 ==============================================

 Found      8 k-points in 1st BZ
 the following      8 k-points will be used (e.g. in the exchange kernel)
 Following reciprocal coordinates:   # in IRBZ
  0.250000  0.250000  0.250000    0.12500000   1 t-inv F
 -0.250000  0.250000  0.250000    0.12500000   2 t-inv F
 -0.250000 -0.250000  0.250000    0.12500000   3 t-inv F
  0.250000 -0.250000  0.250000    0.12500000   4 t-inv F
 -0.250000 -0.250000 -0.250000    0.12500000   1 t-inv T
  0.250000 -0.250000 -0.250000    0.12500000   2 t-inv T
  0.250000  0.250000 -0.250000    0.12500000   3 t-inv T
 -0.250000  0.250000 -0.250000    0.12500000   4 t-inv T


--------------------------------------------------------------------------------------------------------




 Dimension of arrays:
   k-points           NKPTS =      4   k-points in BZ     NKDIM =      4   number of bands    NBANDS=    476
   number of dos      NEDOS =    301   number of ions     NIONS =    108
   non local maximal  LDIM  =      6   non local SUM 2l+1 LMDIM =     18
   total plane-waves  NPLWV = 150528
   max r-space proj   IRMAX =   1791   max aug-charges    IRDMAX=   4900
   dimension x,y,z NGX =    56 NGY =   56 NGZ =   48
   dimension x,y,z NGXF=   112 NGYF=  112 NGZF=   96
   support grid    NGXF=   112 NGYF=  112 NGZF=   96
   ions per type =              36  72
   NGX,Y,Z   is equivalent  to a cutoff of   8.18,  8.18,  8.31 a.u.
   NGXF,Y,Z  is equivalent  to a cutoff of  16.37, 16.37, 16.62 a.u.

 SYSTEM =  unknown system
 POSCAR =  Ti4 O8

 Startparameter for this run:
   NWRITE =      2    write-flag & timer
   PREC   = normal    normal or accurate (medium, high low for compatibility)
   ISTART =      0    job   : 0-new  1-cont  2-samecut
   ICHARG =      2    charge: 1-file 2-atom 10-const
   ISPIN  =      1    spin polarized calculation?
   LNONCOLLINEAR =      F non collinear calculations
   LSORBIT =      F    spin-orbit coupling
   INIWAV =      1    electr: 0-lowe 1-rand  2-diag
   LASPH  =      F    aspherical Exc in radial PAW
 Electronic Relaxation 1
   ENCUT  =  400.0 eV  29.40 Ry    5.42 a.u.  18.55 18.55 15.66*2*pi/ulx,y,z
   ENINI  =  400.0     initial cutoff
   ENAUG  =  605.4 eV  augmentation charge cutoff
   NELM   =     80;   NELMIN=  4; NELMDL= -5     # of ELM steps
   EDIFF  = 0.1E-06   stopping-criterion for ELM
   LREAL  =      T    real-space projection
   NLSPLINE    = F    spline interpolate recip. space projectors
   LCOMPAT=      F    compatible to vasp.4.4
   GGA_COMPAT  = T    GGA compatible to vasp.4.4-vasp.4.6
   LMAXPAW     = -100 max onsite density
   LMAXMIX     =    2 max onsite mixed and CHGCAR
   VOSKOWN=      0    Vosko Wilk Nusair interpolation
   ROPT   =   -0.00050  -0.00050
 Ionic relaxation
   EDIFFG = 0.1E-05   stopping-criterion for IOM
   NSW    =      0    number of steps for IOM
   NBLOCK =      1;   KBLOCK =      1    inner block; outer block
   IBRION =     -1    ionic relax: 0-MD 1-quasi-New 2-CG
   NFREE  =      0    steps in history (QN), initial steepest desc. (CG)
   ISIF   =      2    stress and relaxation
   IWAVPR =     10    prediction:  0-non 1-charg 2-wave 3-comb
   ISYM   =      0    0-nonsym 1-usesym 2-fastsym
   LCORR  =      T    Harris-Foulkes like correction to forces

   POTIM  = 0.5000    time-step for ionic-motion
   TEIN   =    0.0    initial temperature
   TEBEG  =    0.0;   TEEND  =   0.0 temperature during run
   SMASS  =  -3.00    Nose mass-parameter (am)
   estimated Nose-frequenzy (Omega)   =  0.10E-29 period in steps = 0.13E+47 mass=  -0.296E-26a.u.
   SCALEE = 1.0000    scale energy and forces
   NPACO  =    256;   APACO  = 10.0  distance and # of slots for P.C.
   PSTRESS=    0.0 pullay stress

  Mass of Ions in am
   POMASS =  47.88 16.00
  Ionic Valenz
   ZVAL   =  10.00  6.00
  Atomic Wigner-Seitz radii
   RWIGS  =  -1.00 -1.00
  virtual crystal weights
   VCA    =   1.00  1.00
   NELECT =     792.0000    total number of electrons
   NUPDOWN=      -1.0000    fix difference up-down

 DOS related values:
   EMIN   =  10.00;   EMAX   =-10.00  energy-range for DOS
   EFERMI =   0.00
   ISMEAR =     0;   SIGMA  =   0.10  broadening in eV -4-tet -1-fermi 0-gaus

 Electronic relaxation 2 (details)
   IALGO  =     38    algorithm
   LDIAG  =      T    sub-space diagonalisation (order eigenvalues)
   LSUBROT=      F    optimize rotation matrix (better conditioning)
   TURBO    =      0    0=normal 1=particle mesh
   IRESTART =      0    0=no restart 2=restart with 2 vectors
   NREBOOT  =      0    no. of reboots
   NMIN     =      0    reboot dimension
   EREF     =   0.00    reference energy to select bands
   IMIX   =      4    mixing-type and parameters
     AMIX     =   0.40;   BMIX     =  1.00
     AMIX_MAG =   1.60;   BMIX_MAG =  1.00
     AMIN     =   0.10
     WC   =   100.;   INIMIX=   1;  MIXPRE=   1;  MAXMIX= -45

 Intra band minimization:
   WEIMIN = 0.0000     energy-eigenvalue tresh-hold
   EBREAK =  0.53E-10  absolut break condition
   DEPER  =   0.30     relativ break condition

   TIME   =   0.40     timestep for ELM

  volume/ion in A,a.u.               =      11.51        77.68
  Fermi-wavevector in a.u.,A,eV,Ry     =   1.408670  2.662001 26.998745  1.984352
  Thomas-Fermi vector in A             =   2.530804

 Write flags
   LWAVE        =      F    write WAVECAR
   LDOWNSAMPLE  =      F    k-point downsampling of WAVECAR
   LCHARG       =      F    write CHGCAR
   LVTOT        =      F    write LOCPOT, total local potential
   LVHAR        =      F    write LOCPOT, Hartree potential only
   LELF         =      F    write electronic localiz. function (ELF)
   LORBIT       =      0    0 simple, 1 ext, 2 COOP (PROOUT), +10 PAW based schemes


 Dipole corrections
   LMONO  =      F    monopole corrections only (constant potential shift)
   LDIPOL =      F    correct potential (dipole corrections)
   IDIPOL =      0    1-x, 2-y, 3-z, 4-all directions
   EPSILON=  1.0000000 bulk dielectric constant

 Exchange correlation treatment:
   GGA     =    --    GGA type
   LEXCH   =     8    internal setting for exchange type
   LIBXC   =     F    Libxc
   VOSKOWN =     0    Vosko Wilk Nusair interpolation
   LHFCALC =     F    Hartree Fock is set to
   LHFONE  =     F    Hartree Fock one center treatment
   AEXX    =    0.0000 exact exchange contribution

 Linear response parameters
   LEPSILON=     T    determine dielectric tensor
   LRPA    =     F    only Hartree local field effects (RPA)
   LNABLA  =     F    use nabla operator in PAW spheres
   LVEL    =     F    velocity operator in full k-point grid
   CSHIFT  =0.1000    complex shift for real part using Kramers Kronig
   OMEGAMAX=  -1.0    maximum frequency
   DEG_THRESHOLD= 0.2000000E-02 threshold for treating states as degnerate
   RTIME   =   -0.100 relaxation time in fs
  (WPLASMAI=    0.000 imaginary part of plasma frequency in eV, 0.658/RTIME)
   DFIELD  = 0.0000000 0.0000000 0.0000000 field for delta impulse in time

  Optional k-point grid parameters
   LKPOINTS_OPT  =     F    use optional k-point grid
   KPOINTS_OPT_MODE=     1    mode for optional k-point grid

 Orbital magnetization related:
   ORBITALMAG=     F  switch on orbital magnetization
   LCHIMAG   =     F  perturbation theory with respect to B field
   DQ        =  0.001000  dq finite difference perturbation B field
   LLRAUG    =     F  two centre corrections for induced B field

 PEAD related settings:
   LPEAD      =     T    switch on PEAD
   IPEAD      =     4    finite difference order for dpsi/dk
   LCALCPOL   =     F    calculate macroscopic polarization
   LCALCEPS   =     F    calculate dielectric tensor
   EFIELD_PEAD=    0.0000    0.0000    0.0000
   SKIP_EDOTP =     F
   LRPA       =     F
   SKIP_SCF   =     F


--------------------------------------------------------------------------------------------------------


 Static calculation
 charge density and potential will be updated during run
 non-spin polarized calculation
 Variant of blocked Davidson
 Davidson routine will perform the subspace rotation
 perform sub-space diagonalisation
    after iterative eigenvector-optimisation
 modified Broyden-mixing scheme, WC =      100.0
 initial mixing is a Kerker type mixing with AMIX =  0.4000 and BMIX =      1.0000
 Hartree-type preconditioning will be used
 using additional bands           80
 real space projection scheme for non local part
 use partial core corrections
 calculate Harris-corrections to forces
   (improved forces if not selfconsistent)
 use gradient corrections
 use of overlap-Matrix (Vanderbilt PP)
 Gauss-broadening in eV      SIGMA  =   0.10


--------------------------------------------------------------------------------------------------------


  energy-cutoff  :      400.00
  volume of cell :     1243.14
      direct lattice vectors                 reciprocal lattice vectors
    11.376843452  0.000000000  0.000000000     0.087897843  0.000000000  0.000000000
     0.000000000 11.376843452  0.000000000     0.000000000  0.087897843  0.000000000
     0.000000000  0.000000000  9.604574204     0.000000000  0.000000000  0.104117057

  length of vectors
    11.376843452 11.376843452  9.604574204     0.087897843  0.087897843  0.104117057



 k-points in units of 2pi/SCALE and weight: K-Points
   0.02197446  0.02197446  0.02602926       0.250
  -0.02197446  0.02197446  0.02602926       0.250
  -0.02197446 -0.02197446  0.02602926       0.250
   0.02197446 -0.02197446  0.02602926       0.250

 k-points in reciprocal lattice and weights: K-Points
   0.25000000  0.25000000  0.25000000       0.250
  -0.25000000  0.25000000  0.25000000       0.250
  -0.25000000 -0.25000000  0.25000000       0.250
   0.25000000 -0.25000000  0.25000000       0.250

 position of ions in fractional coordinates (direct lattice)
   0.16666667  0.16666667  0.50000000
   0.16666667  0.50000000  0.50000000
   0.16666667  0.83333331  0.50000000
   0.50000000  0.16666667  0.50000000
   0.50000000  0.50000000  0.50000000
   0.50000000  0.83333331  0.50000000
   0.83333331  0.16666667  0.50000000
   0.83333331  0.50000000  0.50000000
   0.83333331  0.83333331  0.50000000
   0.16666667  0.00000000  0.75000000
   0.16666667  0.33333334  0.75000000
   0.16666667  0.66666669  0.75000000
   0.50000000  0.00000000  0.75000000
   0.50000000  0.33333334  0.75000000
   0.50000000  0.66666669  0.75000000
   0.83333331  0.00000000  0.75000000
   0.83333331  0.33333334  0.75000000
   0.83333331  0.66666669  0.75000000
   0.00000000  0.00000000  0.00000000
   0.00000000  0.33333334  0.00000000
   0.00000000  0.66666669  0.00000000
   0.33333334  0.00000000  0.00000000
   0.33333334  0.33333334  0.00000000
   0.33333334  0.66666669  0.00000000
   0.66666669  0.00000000  0.00000000
   0.66666669  0.33333334  0.00000000
   0.66666669  0.66666669  0.00000000
   0.00000000  0.16666667  0.25000000
   0.00000000  0.50000000  0.25000000
   0.00000000  0.83333331  0.25000000
   0.33333334  0.16666667  0.25000000
   0.33333334  0.50000000  0.25000000
   0.33333334  0.83333331  0.25000000
   0.66666669  0.16666667  0.25000000
   0.66666669  0.50000000  0.25000000
   0.66666669  0.83333331  0.25000000
   0.00000000  0.16666667  0.45789859
   0.00000000  0.50000000  0.45789859
   0.00000000  0.83333331  0.45789859
   0.33333334  0.16666667  0.45789859
   0.33333334  0.50000000  0.45789859
   0.33333334  0.83333331  0.45789859
   0.65787690  0.16666667  0.45789859
   0.66666669  0.50000000  0.45789859
   0.66666669  0.83333331  0.45789859
   0.16666667  0.16666667  0.70789862
   0.16666667  0.50000000  0.70789862
   0.16666667  0.83333331  0.70789862
   0.50000000  0.16666667  0.70789862
   0.50000000  0.50000000  0.70789862
   0.50000000  0.83333331  0.70789862
   0.83333331  0.16666667  0.70789862
   0.83333331  0.50000000  0.70789862
   0.83333331  0.83333331  0.70789862
   0.16666667  0.00000000  0.54210138
   0.16666667  0.33333334  0.54210138
   0.16666667  0.66666669  0.54210138
   0.50000000  0.00000000  0.54210138
   0.50000000  0.33333334  0.54210138
   0.50000000  0.66666669  0.54210138
   0.83333331  0.00000000  0.54210138
   0.83333331  0.33333334  0.54210138
   0.83333331  0.66666669  0.54210138
   0.00000000  0.00000000  0.79210138
   0.00000000  0.33333334  0.79210138
   0.00000000  0.66666669  0.79210138
   0.33333334  0.00000000  0.79210138
   0.33333334  0.33333334  0.79210138
   0.33333334  0.66666669  0.79210138
   0.66666669  0.00000000  0.79210138
   0.66666669  0.33333334  0.79210138
   0.66666669  0.66666669  0.79210138
   0.16666667  0.00000000  0.95789862
   0.16666667  0.33333334  0.95789862
   0.16666667  0.66666669  0.95789862
   0.50000000  0.00000000  0.95789862
   0.50000000  0.33333334  0.95789862
   0.50000000  0.66666669  0.95789862
   0.83333331  0.00000000  0.95789862
   0.83333331  0.33333334  0.95789862
   0.83333331  0.66666669  0.95789862
   0.00000000  0.00000000  0.20789860
   0.00000000  0.33333334  0.20789860
   0.00000000  0.66666669  0.20789860
   0.33333334  0.00000000  0.20789860
   0.33333334  0.33333334  0.20789860
   0.33333334  0.66666669  0.20789860
   0.66666669  0.00000000  0.20789860
   0.66666669  0.33333334  0.20789860
   0.66666669  0.66666669  0.20789860
   0.00000000  0.16666667  0.04210141
   0.00000000  0.50000000  0.04210141
   0.00000000  0.83333331  0.04210141
   0.33333334  0.16666667  0.04210141
   0.33333334  0.50000000  0.04210141
   0.33333334  0.83333331  0.04210141
   0.66666669  0.16666667  0.04210141
   0.66666669  0.50000000  0.04210141
   0.66666669  0.83333331  0.04210141
   0.16666667  0.16666667  0.29210141
   0.16666667  0.50000000  0.29210141
   0.16666667  0.83333331  0.29210141
   0.50000000  0.16666667  0.29210141
   0.50000000  0.50000000  0.29210141
   0.50000000  0.83333331  0.29210141
   0.83333331  0.16666667  0.29210141
   0.83333331  0.50000000  0.29210141
   0.83333331  0.83333331  0.29210141

 position of ions in cartesian coordinates  (Angst):
   1.89614063  1.89614063  4.80228710
   1.89614063  5.68842173  4.80228710
   1.89614063  9.48070265  4.80228710
   5.68842173  1.89614063  4.80228710
   5.68842173  5.68842173  4.80228710
   5.68842173  9.48070265  4.80228710
   9.48070265  1.89614063  4.80228710
   9.48070265  5.68842173  4.80228710
   9.48070265  9.48070265  4.80228710
   1.89614063  0.00000000  7.20343065
   1.89614063  3.79228126  7.20343065
   1.89614063  7.58456253  7.20343065
   5.68842173  0.00000000  7.20343065
   5.68842173  3.79228126  7.20343065
   5.68842173  7.58456253  7.20343065
   9.48070265  0.00000000  7.20343065
   9.48070265  3.79228126  7.20343065
   9.48070265  7.58456253  7.20343065
   0.00000000  0.00000000  0.00000000
   0.00000000  3.79228126  0.00000000
   0.00000000  7.58456253  0.00000000
   3.79228126  0.00000000  0.00000000
   3.79228126  3.79228126  0.00000000
   3.79228126  7.58456253  0.00000000
   7.58456253  0.00000000  0.00000000
   7.58456253  3.79228126  0.00000000
   7.58456253  7.58456253  0.00000000
   0.00000000  1.89614063  2.40114355
   0.00000000  5.68842173  2.40114355
   0.00000000  9.48070265  2.40114355
   3.79228126  1.89614063  2.40114355
   3.79228126  5.68842173  2.40114355
   3.79228126  9.48070265  2.40114355
   7.58456253  1.89614063  2.40114355
   7.58456253  5.68842173  2.40114355
   7.58456253  9.48070265  2.40114355
   0.00000000  1.89614063  4.39792096
   0.00000000  5.68842173  4.39792096
   0.00000000  9.48070265  4.39792096
   3.79228126  1.89614063  4.39792096
   3.79228126  5.68842173  4.39792096
   3.79228126  9.48070265  4.39792096
   7.48456253  1.89614063  4.39792096
   7.58456253  5.68842173  4.39792096
   7.58456253  9.48070265  4.39792096
   1.89614063  1.89614063  6.79906479
   1.89614063  5.68842173  6.79906479
   1.89614063  9.48070265  6.79906479
   5.68842173  1.89614063  6.79906479
   5.68842173  5.68842173  6.79906479
   5.68842173  9.48070265  6.79906479
   9.48070265  1.89614063  6.79906479
   9.48070265  5.68842173  6.79906479
   9.48070265  9.48070265  6.79906479
   1.89614063  0.00000000  5.20665296
   1.89614063  3.79228126  5.20665296
   1.89614063  7.58456253  5.20665296
   5.68842173  0.00000000  5.20665296
   5.68842173  3.79228126  5.20665296
   5.68842173  7.58456253  5.20665296
   9.48070265  0.00000000  5.20665296
   9.48070265  3.79228126  5.20665296
   9.48070265  7.58456253  5.20665296
   0.00000000  0.00000000  7.60779651
   0.00000000  3.79228126  7.60779651
   0.00000000  7.58456253  7.60779651
   3.79228126  0.00000000  7.60779651
   3.79228126  3.79228126  7.60779651
   3.79228126  7.58456253  7.60779651
   7.58456253  0.00000000  7.60779651
   7.58456253  3.79228126  7.60779651
   7.58456253  7.58456253  7.60779651
   1.89614063  0.00000000  9.20020834
   1.89614063  3.79228126  9.20020834
   1.89614063  7.58456253  9.20020834
   5.68842173  0.00000000  9.20020834
   5.68842173  3.79228126  9.20020834
   5.68842173  7.58456253  9.20020834
   9.48070265  0.00000000  9.20020834
   9.48070265  3.79228126  9.20020834
   9.48070265  7.58456253  9.20020834
   0.00000000  0.00000000  1.99677755
   0.00000000  3.79228126  1.99677755
   0.00000000  7.58456253  1.99677755
   3.79228126  0.00000000  1.99677755
   3.79228126  3.79228126  1.99677755
   3.79228126  7.58456253  1.99677755
   7.58456253  0.00000000  1.99677755
   7.58456253  3.79228126  1.99677755
   7.58456253  7.58456253  1.99677755
   0.00000000  1.89614063  0.40436607
   0.00000000  5.68842173  0.40436607
   0.00000000  9.48070265  0.40436607
   3.79228126  1.89614063  0.40436607
   3.79228126  5.68842173  0.40436607
   3.79228126  9.48070265  0.40436607
   7.58456253  1.89614063  0.40436607
   7.58456253  5.68842173  0.40436607
   7.58456253  9.48070265  0.40436607
   1.89614063  1.89614063  2.80550970
   1.89614063  5.68842173  2.80550970
   1.89614063  9.48070265  2.80550970
   5.68842173  1.89614063  2.80550970
   5.68842173  5.68842173  2.80550970
   5.68842173  9.48070265  2.80550970
   9.48070265  1.89614063  2.80550970
   9.48070265  5.68842173  2.80550970
   9.48070265  9.48070265  2.80550970



--------------------------------------------------------------------------------------------------------


 k-point   1 :   0.2500 0.2500 0.2500  plane waves:   22590
 k-point   2 :  -0.2500 0.2500 0.2500  plane waves:   22590
 k-point   3 :  -0.2500-0.2500 0.2500  plane waves:   22590
 k-point   4 :   0.2500-0.2500 0.2500  plane waves:   22590

 maximum and minimum number of plane-waves per node :     22590    22590

 maximum number of plane-waves:     22590
 maximum index in each direction:
   IXMAX=   18   IYMAX=   18   IZMAX=   15
   IXMIN=  -18   IYMIN=  -18   IZMIN=  -15


 serial   3D FFT for wavefunctions
 parallel 3D FFT for charge:
    minimum data exchange during FFTs selected (reduces bandwidth)


 total amount of memory used by VASP MPI-rank0   266725. kBytes
=======================================================================

   base      :      30000. kBytes
   nonlr-proj:      19556. kBytes
   fftplans  :      10927. kBytes
   grid      :      23181. kBytes
   one-center:       1679. kBytes
   wavefun   :     181382. kBytes

     INWAV:  cpu time      0.0000: real time      0.0000
 Broyden mixing: mesh for mixing (old mesh)
   NGX = 37   NGY = 37   NGZ = 31
  (NGX  =112   NGY  =112   NGZ  = 96)
  gives a total of  42439 points

 initial charge density was supplied:
 charge density of overlapping atoms calculated
 number of electron     792.0000000 magnetization
 keeping initial charge density in first step


--------------------------------------------------------------------------------------------------------


 Maximum index for non-local projection operator         1743
 Maximum index for augmentation-charges         1189 (set IRDMAX)


--------------------------------------------------------------------------------------------------------


 First call to EWALD:  gamma=   0.165
 Maximum number of real-space cells 3x 3x 3
 Maximum number of reciprocal cells 3x 3x 3

    FEWALD:  cpu time      0.3977: real time      0.3999


--------------------------------------- Iteration      1(   1)  ---------------------------------------


    POTLOK:  cpu time      0.1166: real time      0.1222
    SETDIJ:  cpu time      0.0914: real time      0.0971
     EDDAV:  cpu time     13.2940: real time     13.4400
       DOS:  cpu time      0.0031: real time      0.0058
    --------------------------------------------
      LOOP:  cpu time     13.5051: real time     13.6651

 eigenvalue-minimisations  :  3824
 total energy-change (2. order) : 0.1156013E+05  (-0.3305552E+05)
 number of electron     792.0000000 magnetization
 augmentation part      792.0000000 magnetization

 Free energy of the ion-electron system (eV)
  ---------------------------------------------------
  alpha Z        PSCENC =      3563.47650690
  Ewald energy   TEWEN  =    -48586.62107284
  -Hartree energ DENC   =    -18842.71025238
  -exchange      EXHF   =         0.00000000
  -V(xc)+E(xc)   XCENC  =      3286.87491728
  PAW double counting   =     54431.09303398   -54537.79254336
  entropy T*S    EENTRO =        -0.14353983
  eigenvalues    EBANDS =      3589.55286217
  atomic energy  EATOM  =     68656.39924158
  Solvation  Ediel_sol  =         0.00000000
  ---------------------------------------------------
  free energy    TOTEN  =     11560.12915350 eV

  energy without entropy =    11560.27269333  energy(sigma->0) =    11560.20092342


--------------------------------------------------------------------------------------------------------




--------------------------------------- Iteration      1(   2)  ---------------------------------------


     EDDAV:  cpu time     13.3153: real time     13.4165
       DOS:  cpu time      0.0026: real time      0.0026
    --------------------------------------------
      LOOP:  cpu time     13.3178: real time     13.4191

 eigenvalue-minimisations  :  3808
 total energy-change (2. order) :-0.9987038E+04  (-0.9556423E+04)
 number of electron     792.0000000 magnetization
 augmentation part      792.0000000 magnetization

 Free energy of the ion-electron system (eV)
  ---------------------------------------------------
  alpha Z        PSCENC =      3563.47650690
  Ewald energy   TEWEN  =    -48586.62107284
  -Hartree energ DENC   =    -18842.71025238
  -exchange      EXHF   =         0.00000000
  -V(xc)+E(xc)   XCENC  =      3286.87491728
  PAW double counting   =     54431.09303398   -54537.79254336
  entropy T*S    EENTRO =        -0.28628005
  eigenvalues    EBANDS =     -6397.34228078
  atomic energy  EATOM  =     68656.39924158
  Solvation  Ediel_sol  =         0.00000000
  ---------------------------------------------------
  free energy    TOTEN  =      1573.09127032 eV

  energy without entropy =     1573.37755038  energy(sigma->0) =     1573.23441035


--------------------------------------------------------------------------------------------------------




--------------------------------------- Iteration      1(   3)  ---------------------------------------


     EDDAV:  cpu time     15.0293: real time     15.1386
       DOS:  cpu time      0.0022: real time      0.0022
    --------------------------------------------
      LOOP:  cpu time     15.0315: real time     15.1408

 eigenvalue-minimisations  :  4416
 total energy-change (2. order) :-0.2641318E+04  (-0.2569272E+04)
 number of electron     792.0000000 magnetization
 augmentation part      792.0000000 magnetization

 Free energy of the ion-electron system (eV)
  ---------------------------------------------------
  alpha Z        PSCENC =      3563.47650690
  Ewald energy   TEWEN  =    -48586.62107284
  -Hartree energ DENC   =    -18842.71025238
  -exchange      EXHF   =         0.00000000
  -V(xc)+E(xc)   XCENC  =      3286.87491728
  PAW double counting   =     54431.09303398   -54537.79254336
  entropy T*S    EENTRO =        -0.00000000
  eigenvalues    EBANDS =     -9038.94675315
  atomic energy  EATOM  =     68656.39924158
  Solvation  Ediel_sol  =         0.00000000
  ---------------------------------------------------
  free energy    TOTEN  =     -1068.22692199 eV

  energy without entropy =    -1068.22692199  energy(sigma->0) =    -1068.22692199


--------------------------------------------------------------------------------------------------------




--------------------------------------- Iteration      1(   4)  ---------------------------------------


     EDDAV:  cpu time     16.7833: real time     16.9037
       DOS:  cpu time      0.0024: real time      0.0025
    --------------------------------------------
      LOOP:  cpu time     16.7857: real time     16.9061

 eigenvalue-minimisations  :  5032
 total energy-change (2. order) :-0.2049181E+03  (-0.2037948E+03)
 number of electron     792.0000000 magnetization
 augmentation part      792.0000000 magnetization

 Free energy of the ion-electron system (eV)
  ---------------------------------------------------
  alpha Z        PSCENC =      3563.47650690
  Ewald energy   TEWEN  =    -48586.62107284
  -Hartree energ DENC   =    -18842.71025238
  -exchange      EXHF   =         0.00000000
  -V(xc)+E(xc)   XCENC  =      3286.87491728
  PAW double counting   =     54431.09303398   -54537.79254336
  entropy T*S    EENTRO =        -0.00000000
  eigenvalues    EBANDS =     -9243.86487734
  atomic energy  EATOM  =     68656.39924158
  Solvation  Ediel_sol  =         0.00000000
  ---------------------------------------------------
  free energy    TOTEN  =     -1273.14504618 eV

  energy without entropy =    -1273.14504618  energy(sigma->0) =    -1273.14504618


--------------------------------------------------------------------------------------------------------




--------------------------------------- Iteration      1(   5)  ---------------------------------------


     EDDAV:  cpu time     16.5792: real time     16.7000
       DOS:  cpu time      0.0026: real time      0.0026
    CHARGE:  cpu time      0.2177: real time      0.2225
    MIXING:  cpu time      0.0160: real time      0.0195
    --------------------------------------------
      LOOP:  cpu time     16.8155: real time     16.9446

 eigenvalue-minimisations  :  4944
 total energy-change (2. order) :-0.5471004E+01  (-0.5458538E+01)
 number of electron     792.0003057 magnetization
 augmentation part      202.2430491 magnetization

 Broyden mixing:
  rms(total) = 0.17246E+02    rms(broyden)= 0.17245E+02
  rms(prec ) = 0.19182E+02
  weight for this iteration     100.00

 Free energy of the ion-electron system (eV)
  ---------------------------------------------------
  alpha Z        PSCENC =      3563.47650690
  Ewald energy   TEWEN  =    -48586.62107284
  -Hartree energ DENC   =    -18842.71025238
  -exchange      EXHF   =         0.00000000
  -V(xc)+E(xc)   XCENC  =      3286.87491728
  PAW double counting   =     54431.09303398   -54537.79254336
  entropy T*S    EENTRO =        -0.00000000
  eigenvalues    EBANDS =     -9249.33588089
  atomic energy  EATOM  =     68656.39924158
  Solvation  Ediel_sol  =         0.00000000
  ---------------------------------------------------
  free energy    TOTEN  =     -1278.61604974 eV

  energy without entropy =    -1278.61604974  energy(sigma->0) =    -1278.61604974


--------------------------------------------------------------------------------------------------------




--------------------------------------- Iteration      1(   6)  ---------------------------------------


    POTLOK:  cpu time      0.1132: real time      0.1144
    SETDIJ:  cpu time      0.0970: real time      0.0974
     EDDAV:  cpu time     16.9505: real time     17.0669
       DOS:  cpu time      0.0033: real time      0.0033
    CHARGE:  cpu time      0.2142: real time      0.2164
    MIXING:  cpu time      0.0164: real time      0.0207
    --------------------------------------------
      LOOP:  cpu time     17.3946: real time     17.5192

 eigenvalue-minimisations  :  4968
 total energy-change (2. order) : 0.3023486E+03  (-0.1974009E+03)
 number of electron     792.0002463 magnetization
 augmentation part      214.0947539 magnetization

 Broyden mixing:
  rms(total) = 0.53107E+01    rms(broyden)= 0.53057E+01
  rms(prec ) = 0.58359E+01
  weight for this iteration     100.00

 eigenvalues of (default mixing * dielectric matrix)
  average eigenvalue GAMMA=   0.9659
  0.9659

 Free energy of the ion-electron system (eV)
  ---------------------------------------------------
  alpha Z        PSCENC =      3563.47650690
  Ewald energy   TEWEN  =    -48586.62107284
  -Hartree energ DENC   =    -19067.59635792
  -exchange      EXHF   =         0.00000000
  -V(xc)+E(xc)   XCENC  =      3337.87856086
  PAW double counting   =     68257.59677098   -68489.88999913
  entropy T*S    EENTRO =        -0.00000000
  eigenvalues    EBANDS =     -8647.51106015
  atomic energy  EATOM  =     68656.39924158
  Solvation  Ediel_sol  =         0.00000000
  ---------------------------------------------------
  free energy    TOTEN  =      -976.26740971 eV

  energy without entropy =     -976.26740971  energy(sigma->0) =     -976.26740971


--------------------------------------------------------------------------------------------------------




--------------------------------------- Iteration      1(   7)  ---------------------------------------


    POTLOK:  cpu time      0.1110: real time      0.1120
    SETDIJ:  cpu time      0.0964: real time      0.0967
     EDDAV:  cpu time     18.0595: real time     18.1824
       DOS:  cpu time      0.0024: real time      0.0024
    CHARGE:  cpu time      0.2161: real time      0.2185
    MIXING:  cpu time      0.0196: real time      0.0209
    --------------------------------------------
      LOOP:  cpu time     18.5049: real time     18.6327

 eigenvalue-minimisations  :  5336
 total energy-change (2. order) : 0.4288692E+01  (-0.2847912E+02)
 number of electron     792.0002653 magnetization
 augmentation part      207.3479459 magnetization

 Broyden mixing:
  rms(total) = 0.45879E+01    rms(broyden)= 0.45876E+01
  rms(prec ) = 0.47804E+01
  weight for this iteration     100.00

 eigenvalues of (default mixing * dielectric matrix)
  average eigenvalue GAMMA=   1.8406
  0.7381  2.9431

 Free energy of the ion-electron system (eV)
  ---------------------------------------------------
  alpha Z        PSCENC =      3563.47650690
  Ewald energy   TEWEN  =    -48586.62107284
  -Hartree energ DENC   =    -18909.83233695
  -exchange      EXHF   =         0.00000000
  -V(xc)+E(xc)   XCENC  =      3318.63991801
  PAW double counting   =     75270.61727175   -75513.98548009
  entropy T*S    EENTRO =        -0.00000000
  eigenvalues    EBANDS =     -8770.67276625
  atomic energy  EATOM  =     68656.39924158
  Solvation  Ediel_sol  =         0.00000000
  ---------------------------------------------------
  free energy    TOTEN  =      -971.97871790 eV

  energy without entropy =     -971.97871790  energy(sigma->0) =     -971.97871790


--------------------------------------------------------------------------------------------------------




--------------------------------------- Iteration      1(   8)  ---------------------------------------


    POTLOK:  cpu time      0.1107: real time      0.1121
    SETDIJ:  cpu time      0.0937: real time      0.0940
     EDDAV:  cpu time     16.8352: real time     16.9515
       DOS:  cpu time      0.0020: real time      0.0020
    CHARGE:  cpu time      0.2136: real time      0.2158
    MIXING:  cpu time      0.0218: real time      0.0219
    --------------------------------------------
      LOOP:  cpu time     17.2771: real time     17.3973

 eigenvalue-minimisations  :  5016
 total energy-change (2. order) :-0.8545859E-01  (-0.1097460E+02)
 number of electron     792.0002587 magnetization
 augmentation part      215.5443745 magnetization

 Broyden mixing:
  rms(total) = 0.33436E+01    rms(broyden)= 0.33434E+01
  rms(prec ) = 0.36447E+01
  weight for this iteration     100.00

 eigenvalues of (default mixing * dielectric matrix)
  average eigenvalue GAMMA=   1.2339
  2.1879  0.9194  0.5944

 Free energy of the ion-electron system (eV)
  ---------------------------------------------------
  alpha Z        PSCENC =      3563.47650690
  Ewald energy   TEWEN  =    -48586.62107284
  -Hartree energ DENC   =    -18535.28719247
  -exchange      EXHF   =         0.00000000
  -V(xc)+E(xc)   XCENC  =      3303.96272079
  PAW double counting   =     93809.32328603   -94124.72362081
  entropy T*S    EENTRO =        -0.00000000
  eigenvalues    EBANDS =     -9058.59404567
  atomic energy  EATOM  =     68656.39924158
  Solvation  Ediel_sol  =         0.00000000
  ---------------------------------------------------
  free energy    TOTEN  =      -972.06417649 eV

  energy without entropy =     -972.06417649  energy(sigma->0) =     -972.06417649


--------------------------------------------------------------------------------------------------------




--------------------------------------- Iteration      1(   9)  ---------------------------------------


    POTLOK:  cpu time      0.1092: real time      0.1106
    SETDIJ:  cpu time      0.0941: real time      0.0944
     EDDAV:  cpu time     16.8416: real time     16.9628
       DOS:  cpu time      0.0024: real time      0.0024
    CHARGE:  cpu time      0.2154: real time      0.2175
    MIXING:  cpu time      0.0204: real time      0.0212
    --------------------------------------------
      LOOP:  cpu time     17.2831: real time     17.4090

 eigenvalue-minimisations  :  5080
 total energy-change (2. order) : 0.5526582E+01  (-0.3387905E+01)
 number of electron     792.0002635 magnetization
 augmentation part      211.5225988 magnetization

 Broyden mixing:
  rms(total) = 0.29127E+00    rms(broyden)= 0.29061E+00
  rms(prec ) = 0.31685E+00
  weight for this iteration     100.00

 eigenvalues of (default mixing * dielectric matrix)
  average eigenvalue GAMMA=   1.0999
  2.1606  0.7887  0.7887  0.6618

 Free energy of the ion-electron system (eV)
  ---------------------------------------------------
  alpha Z        PSCENC =      3563.47650690
  Ewald energy   TEWEN  =    -48586.62107284
  -Hartree energ DENC   =    -18676.86985961
  -exchange      EXHF   =         0.00000000
  -V(xc)+E(xc)   XCENC  =      3308.75432669
  PAW double counting   =     88672.41034755   -88969.05256373
  entropy T*S    EENTRO =        -0.00000000
  eigenvalues    EBANDS =     -8935.03452079
  atomic energy  EATOM  =     68656.39924158
  Solvation  Ediel_sol  =         0.00000000
  ---------------------------------------------------
  free energy    TOTEN  =      -966.53759424 eV

  energy without entropy =     -966.53759424  energy(sigma->0) =     -966.53759424


--------------------------------------------------------------------------------------------------------




--------------------------------------- Iteration      1(  10)  ---------------------------------------


    POTLOK:  cpu time      0.1099: real time      0.1115
    SETDIJ:  cpu time      0.0913: real time      0.0916
     EDDAV:  cpu time     17.1030: real time     17.2248
       DOS:  cpu time      0.0026: real time      0.0026
    CHARGE:  cpu time      0.2163: real time      0.2185
    MIXING:  cpu time      0.0215: real time      0.0216
    --------------------------------------------
      LOOP:  cpu time     17.5447: real time     17.6706

 eigenvalue-minimisations  :  5248
 total energy-change (2. order) :-0.2880078E-01  (-0.7950848E-01)
 number of electron     792.0002630 magnetization
 augmentation part      211.4729129 magnetization

 Broyden mixing:
  rms(total) = 0.19691E+00    rms(broyden)= 0.19684E+00
  rms(prec ) = 0.21366E+00
  weight for this iteration     100.00

 eigenvalues of (default mixing * dielectric matrix)
  average eigenvalue GAMMA=   1.2756
  2.4565  1.6800  1.0779  0.6493  0.5143

 Free energy of the ion-electron system (eV)
  ---------------------------------------------------
  alpha Z        PSCENC =      3563.47650690
  Ewald energy   TEWEN  =    -48586.62107284
  -Hartree energ DENC   =    -18699.93773846
  -exchange      EXHF   =         0.00000000
  -V(xc)+E(xc)   XCENC  =      3310.30332857
  PAW double counting   =     88718.80766404   -89017.02213380
  entropy T*S    EENTRO =        -0.00000000
  eigenvalues    EBANDS =     -8911.97219101
  atomic energy  EATOM  =     68656.39924158
  Solvation  Ediel_sol  =         0.00000000
  ---------------------------------------------------
  free energy    TOTEN  =      -966.56639502 eV

  energy without entropy =     -966.56639502  energy(sigma->0) =     -966.56639502


--------------------------------------------------------------------------------------------------------




--------------------------------------- Iteration      1(  11)  ---------------------------------------


    POTLOK:  cpu time      0.1097: real time      0.1111
    SETDIJ:  cpu time      0.0974: real time      0.0977
     EDDAV:  cpu time     15.2789: real time     15.3859
       DOS:  cpu time      0.0017: real time      0.0017
    CHARGE:  cpu time      0.2121: real time      0.2131
    MIXING:  cpu time      0.0235: real time      0.0236
    --------------------------------------------
      LOOP:  cpu time     15.7234: real time     15.8331

 eigenvalue-minimisations  :  4504
 total energy-change (2. order) :-0.7378138E-01  (-0.5805715E-01)
 number of electron     792.0002619 magnetization
 augmentation part      211.5088626 magnetization

 Broyden mixing:
  rms(total) = 0.23321E+00    rms(broyden)= 0.23318E+00
  rms(prec ) = 0.28166E+00
  weight for this iteration     100.00

 eigenvalues of (default mixing * dielectric matrix)
  average eigenvalue GAMMA=   1.2570
  2.5485  1.8067  1.0042  1.0042  0.5893  0.5893

 Free energy of the ion-electron system (eV)
  ---------------------------------------------------
  alpha Z        PSCENC =      3563.47650690
  Ewald energy   TEWEN  =    -48586.62107284
  -Hartree energ DENC   =    -18741.88549322
  -exchange      EXHF   =         0.00000000
  -V(xc)+E(xc)   XCENC  =      3313.29691990
  PAW double counting   =     89199.49670767   -89502.14581959
  entropy T*S    EENTRO =        -0.00000000
  eigenvalues    EBANDS =     -8868.65716681
  atomic energy  EATOM  =     68656.39924158
  Solvation  Ediel_sol  =         0.00000000
  ---------------------------------------------------
  free energy    TOTEN  =      -966.64017640 eV

  energy without entropy =     -966.64017640  energy(sigma->0) =     -966.64017640


--------------------------------------------------------------------------------------------------------




--------------------------------------- Iteration      1(  12)  ---------------------------------------


    POTLOK:  cpu time      0.1108: real time      0.1121
    SETDIJ:  cpu time      0.0954: real time      0.0957
     EDDAV:  cpu time     17.9246: real time     18.0468
       DOS:  cpu time      0.0019: real time      0.0019
    CHARGE:  cpu time      0.2080: real time      0.2090
    MIXING:  cpu time      0.0228: real time      0.0229
    --------------------------------------------
      LOOP:  cpu time     18.3635: real time     18.4884

 eigenvalue-minimisations  :  5288
 total energy-change (2. order) : 0.6558720E-01  (-0.5567650E-01)
 number of electron     792.0002629 magnetization
 augmentation part      211.1876171 magnetization

 Broyden mixing:
  rms(total) = 0.48247E-01    rms(broyden)= 0.48104E-01
  rms(prec ) = 0.56990E-01
  weight for this iteration     100.00

 eigenvalues of (default mixing * dielectric matrix)
  average eigenvalue GAMMA=   1.2129
  2.5850  1.7003  1.1426  1.1426  0.7682  0.5760  0.5760

 Free energy of the ion-electron system (eV)
  ---------------------------------------------------
  alpha Z        PSCENC =      3563.47650690
  Ewald energy   TEWEN  =    -48586.62107284
  -Hartree energ DENC   =    -18738.90974102
  -exchange      EXHF   =         0.00000000
  -V(xc)+E(xc)   XCENC  =      3312.62940330
  PAW double counting   =     89244.09388586   -89545.98832326
  entropy T*S    EENTRO =        -0.00000000
  eigenvalues    EBANDS =     -8871.65448973
  atomic energy  EATOM  =     68656.39924158
  Solvation  Ediel_sol  =         0.00000000
  ---------------------------------------------------
  free energy    TOTEN  =      -966.57458921 eV

  energy without entropy =     -966.57458921  energy(sigma->0) =     -966.57458921


--------------------------------------------------------------------------------------------------------




--------------------------------------- Iteration      1(  13)  ---------------------------------------


    POTLOK:  cpu time      0.1114: real time      0.1128
    SETDIJ:  cpu time      0.0987: real time      0.0989
     EDDAV:  cpu time     17.4937: real time     17.6145
       DOS:  cpu time      0.0019: real time      0.0019
    CHARGE:  cpu time      0.2112: real time      0.2128
    MIXING:  cpu time      0.0233: real time      0.0234
    --------------------------------------------
      LOOP:  cpu time     17.9402: real time     18.0644

 eigenvalue-minimisations  :  5312
 total energy-change (2. order) : 0.4802979E-03  (-0.1674572E-02)
 number of electron     792.0002628 magnetization
 augmentation part      211.2239263 magnetization

 Broyden mixing:
  rms(total) = 0.23347E-01    rms(broyden)= 0.23336E-01
  rms(prec ) = 0.28170E-01
  weight for this iteration     100.00

 eigenvalues of (default mixing * dielectric matrix)
  average eigenvalue GAMMA=   1.1842
  2.5924  1.6951  1.6951  0.9478  0.6808  0.6808  0.5412  0.6407

 Free energy of the ion-electron system (eV)
  ---------------------------------------------------
  alpha Z        PSCENC =      3563.47650690
  Ewald energy   TEWEN  =    -48586.62107284
  -Hartree energ DENC   =    -18739.32625052
  -exchange      EXHF   =         0.00000000
  -V(xc)+E(xc)   XCENC  =      3312.68816777
  PAW double counting   =     89264.66556988   -89566.53530712
  entropy T*S    EENTRO =        -0.00000000
  eigenvalues    EBANDS =     -8871.32096457
  atomic energy  EATOM  =     68656.39924158
  Solvation  Ediel_sol  =         0.00000000
  ---------------------------------------------------
  free energy    TOTEN  =      -966.57410891 eV

  energy without entropy =     -966.57410891  energy(sigma->0) =     -966.57410891


--------------------------------------------------------------------------------------------------------




--------------------------------------- Iteration      1(  14)  ---------------------------------------


    POTLOK:  cpu time      0.1117: real time      0.1127
    SETDIJ:  cpu time      0.0954: real time      0.0957
     EDDAV:  cpu time     17.8323: real time     17.9558
       DOS:  cpu time      0.0018: real time      0.0018
    CHARGE:  cpu time      0.2077: real time      0.2087
    MIXING:  cpu time      0.0237: real time      0.0238
    --------------------------------------------
      LOOP:  cpu time     18.2725: real time     18.3984

 eigenvalue-minimisations  :  5320
 total energy-change (2. order) : 0.2875712E-03  (-0.1579072E-03)
 number of electron     792.0002628 magnetization
 augmentation part      211.2349403 magnetization

 Broyden mixing:
  rms(total) = 0.12231E-01    rms(broyden)= 0.12230E-01
  rms(prec ) = 0.14649E-01
  weight for this iteration     100.00

 eigenvalues of (default mixing * dielectric matrix)
  average eigenvalue GAMMA=   1.2143
  2.5674  1.8611  1.8611  1.0315  0.9178  0.9178  0.5682  0.5682  0.6358

 Free energy of the ion-electron system (eV)
  ---------------------------------------------------
  alpha Z        PSCENC =      3563.47650690
  Ewald energy   TEWEN  =    -48586.62107284
  -Hartree energ DENC   =    -18740.20056944
  -exchange      EXHF   =         0.00000000
  -V(xc)+E(xc)   XCENC  =      3312.74956028
  PAW double counting   =     89259.07418620   -89560.84924793
  entropy T*S    EENTRO =        -0.00000000
  eigenvalues    EBANDS =     -8870.60242609
  atomic energy  EATOM  =     68656.39924158
  Solvation  Ediel_sol  =         0.00000000
  ---------------------------------------------------
  free energy    TOTEN  =      -966.57382134 eV

  energy without entropy =     -966.57382134  energy(sigma->0) =     -966.57382134


--------------------------------------------------------------------------------------------------------




--------------------------------------- Iteration      1(  15)  ---------------------------------------


    POTLOK:  cpu time      0.1131: real time      0.1146
    SETDIJ:  cpu time      0.0909: real time      0.0917
     EDDAV:  cpu time     17.7610: real time     17.8855
       DOS:  cpu time      0.0016: real time      0.0017
    CHARGE:  cpu time      0.2119: real time      0.2129
    MIXING:  cpu time      0.0237: real time      0.0238
    --------------------------------------------
      LOOP:  cpu time     18.2023: real time     18.3302

 eigenvalue-minimisations  :  5344
 total energy-change (2. order) :-0.9449809E-04  (-0.6783497E-04)
 number of electron     792.0002628 magnetization
 augmentation part      211.2314249 magnetization

 Broyden mixing:
  rms(total) = 0.91273E-02    rms(broyden)= 0.91249E-02
  rms(prec ) = 0.11114E-01
  weight for this iteration     100.00

 eigenvalues of (default mixing * dielectric matrix)
  average eigenvalue GAMMA=   1.2226
  2.6641  2.3796  1.9554  0.8809  0.8809  0.8852  0.8852  0.5765  0.5765  0.5417

 Free energy of the ion-electron system (eV)
  ---------------------------------------------------
  alpha Z        PSCENC =      3563.47650690
  Ewald energy   TEWEN  =    -48586.62107284
  -Hartree energ DENC   =    -18741.18912496
  -exchange      EXHF   =         0.00000000
  -V(xc)+E(xc)   XCENC  =      3312.79681871
  PAW double counting   =     89242.04899889   -89543.65455133
  entropy T*S    EENTRO =        -0.00000000
  eigenvalues    EBANDS =     -8869.83073278
  atomic energy  EATOM  =     68656.39924158
  Solvation  Ediel_sol  =         0.00000000
  ---------------------------------------------------
  free energy    TOTEN  =      -966.57391583 eV

  energy without entropy =     -966.57391583  energy(sigma->0) =     -966.57391583


--------------------------------------------------------------------------------------------------------




--------------------------------------- Iteration      1(  16)  ---------------------------------------


    POTLOK:  cpu time      0.1116: real time      0.1131
    SETDIJ:  cpu time      0.0994: real time      0.0998
     EDDAV:  cpu time     17.7215: real time     17.8461
       DOS:  cpu time      0.0023: real time      0.0023
    CHARGE:  cpu time      0.2122: real time      0.2134
    MIXING:  cpu time      0.0248: real time      0.0253
    --------------------------------------------
      LOOP:  cpu time     18.1718: real time     18.2999

 eigenvalue-minimisations  :  5280
 total energy-change (2. order) : 0.4850327E-04  (-0.9721209E-04)
 number of electron     792.0002627 magnetization
 augmentation part      211.2443542 magnetization

 Broyden mixing:
  rms(total) = 0.39593E-02    rms(broyden)= 0.39551E-02
  rms(prec ) = 0.45516E-02
  weight for this iteration     100.00

 eigenvalues of (default mixing * dielectric matrix)
  average eigenvalue GAMMA=   1.1756
  2.7401  2.4665  1.8832  0.9500  0.9500  0.7607  0.7607  0.7017  0.5782  0.5782
  0.5626

 Free energy of the ion-electron system (eV)
  ---------------------------------------------------
  alpha Z        PSCENC =      3563.47650690
  Ewald energy   TEWEN  =    -48586.62107284
  -Hartree energ DENC   =    -18741.96061756
  -exchange      EXHF   =         0.00000000
  -V(xc)+E(xc)   XCENC  =      3312.85227931
  PAW double counting   =     89237.88346568   -89539.42827919
  entropy T*S    EENTRO =        -0.00000000
  eigenvalues    EBANDS =     -8869.17539122
  atomic energy  EATOM  =     68656.39924158
  Solvation  Ediel_sol  =         0.00000000
  ---------------------------------------------------
  free energy    TOTEN  =      -966.57386733 eV

  energy without entropy =     -966.57386733  energy(sigma->0) =     -966.57386733


--------------------------------------------------------------------------------------------------------




--------------------------------------- Iteration      1(  17)  ---------------------------------------


    POTLOK:  cpu time      0.1113: real time      0.1124
    SETDIJ:  cpu time      0.0910: real time      0.0913
     EDDAV:  cpu time     17.7998: real time     17.9264
       DOS:  cpu time      0.0024: real time      0.0024
    CHARGE:  cpu time      0.2144: real time      0.2155
    MIXING:  cpu time      0.0251: real time      0.0252
    --------------------------------------------
      LOOP:  cpu time     18.2439: real time     18.3731

 eigenvalue-minimisations  :  5272
 total energy-change (2. order) :-0.4125133E-05  (-0.1029891E-04)
 number of electron     792.0002627 magnetization
 augmentation part      211.2438105 magnetization

 Broyden mixing:
  rms(total) = 0.32170E-02    rms(broyden)= 0.32158E-02
  rms(prec ) = 0.38378E-02
  weight for this iteration     100.00

 eigenvalues of (default mixing * dielectric matrix)
  average eigenvalue GAMMA=   1.1640
  2.8561  2.4833  1.8096  1.0489  1.0489  0.8489  0.8489  0.6697  0.6697  0.5890
  0.5882  0.5069

 Free energy of the ion-electron system (eV)
  ---------------------------------------------------
  alpha Z        PSCENC =      3563.47650690
  Ewald energy   TEWEN  =    -48586.62107284
  -Hartree energ DENC   =    -18742.22909043
  -exchange      EXHF   =         0.00000000
  -V(xc)+E(xc)   XCENC  =      3312.86752395
  PAW double counting   =     89235.09136469   -89536.62875989
  entropy T*S    EENTRO =        -0.00000000
  eigenvalues    EBANDS =     -8868.92958541
  atomic energy  EATOM  =     68656.39924158
  Solvation  Ediel_sol  =         0.00000000
  ---------------------------------------------------
  free energy    TOTEN  =      -966.57387146 eV

  energy without entropy =     -966.57387146  energy(sigma->0) =     -966.57387146


--------------------------------------------------------------------------------------------------------




--------------------------------------- Iteration      1(  18)  ---------------------------------------


    POTLOK:  cpu time      0.1112: real time      0.1128
    SETDIJ:  cpu time      0.0950: real time      0.0953
     EDDAV:  cpu time     18.0082: real time     18.1319
       DOS:  cpu time      0.0030: real time      0.0030
    CHARGE:  cpu time      0.2124: real time      0.2135
    MIXING:  cpu time      0.0251: real time      0.0252
    --------------------------------------------
      LOOP:  cpu time     18.4549: real time     18.5816

 eigenvalue-minimisations  :  5344
 total energy-change (2. order) : 0.4912887E-05  (-0.2249430E-05)
 number of electron     792.0002627 magnetization
 augmentation part      211.2421045 magnetization

 Broyden mixing:
  rms(total) = 0.18520E-02    rms(broyden)= 0.18519E-02
  rms(prec ) = 0.22570E-02
  weight for this iteration     100.00

 eigenvalues of (default mixing * dielectric matrix)
  average eigenvalue GAMMA=   1.1624
  2.9122  2.4650  1.7504  1.3271  1.0847  0.8764  0.8764  0.7679  0.7679  0.6379
  0.5707  0.5707  0.5043

 Free energy of the ion-electron system (eV)
  ---------------------------------------------------
  alpha Z        PSCENC =      3563.47650690
  Ewald energy   TEWEN  =    -48586.62107284
  -Hartree energ DENC   =    -18742.34713000
  -exchange      EXHF   =         0.00000000
  -V(xc)+E(xc)   XCENC  =      3312.87151900
  PAW double counting   =     89233.53617851   -89535.06858047
[...]
      7.58456      3.79228      1.99678    -0.01127 -0.00618 -2.89376 ( -0.63483  6.00000)
      7.58456      7.58456      1.99678    -0.00198  0.00031 -2.89470 ( -0.63483  6.00000)
      0.00000      1.89614      0.40437    -0.00125 -0.00030 -2.90172 ( -0.63480  6.00000)
      0.00000      5.68842      0.40437    -0.00068 -0.00023 -2.89654 ( -0.63479  6.00000)
      0.00000      9.48070      0.40437    -0.00066  0.00049 -2.89713 ( -0.63482  6.00000)
      3.79228      1.89614      0.40437    -0.00095 -0.00031 -2.88603 ( -0.63487  6.00000)
      3.79228      5.68842      0.40437    -0.00078 -0.00012 -2.89179 ( -0.63482  6.00000)
      3.79228      9.48070      0.40437    -0.00076  0.00048 -2.89187 ( -0.63485  6.00000)
      7.58456      1.89614      0.40437    -0.00730 -0.00033 -2.88876 ( -0.63480  6.00000)
      7.58456      5.68842      0.40437     0.00129 -0.00151 -2.89484 ( -0.63481  6.00000)
      7.58456      9.48070      0.40437     0.00127  0.00179 -2.89494 ( -0.63484  6.00000)
      1.89614      1.89614      2.80551    -0.00046 -0.00001 -2.89358 ( -0.63482  6.00000)
      1.89614      5.68842      2.80551    -0.00038 -0.00014 -2.89488 ( -0.63482  6.00000)
      1.89614      9.48070      2.80551    -0.00038  0.00016 -2.89492 ( -0.63484  6.00000)
      5.68842      1.89614      2.80551     0.00546  0.00005 -2.83159 ( -0.63513  6.00000)
      5.68842      5.68842      2.80551     0.00025  0.00005 -2.89616 ( -0.63481  6.00000)
      5.68842      9.48070      2.80551     0.00025 -0.00006 -2.89672 ( -0.63482  6.00000)
      9.48070      1.89614      2.80551    -0.00571  0.00000 -2.95031 ( -0.63452  6.00000)
      9.48070      5.68842      2.80551     0.00014 -0.00037 -2.89332 ( -0.63483  6.00000)
      9.48070      9.48070      2.80551     0.00019  0.00037 -2.89338 ( -0.63484  6.00000)
 -----------------------------------------------------------------------------------------
    total drift (improves with k-points):  -0.00044  0.00009 -0.07167




--------------------------------------------------------------------------------------------------------




 MACROSCOPIC STATIC DIELECTRIC TENSOR (including local field effects in DFT)
 ------------------------------------------------------
           6.955972     0.000004    -0.017500
           0.000006     6.957531    -0.000003
          -0.017499    -0.000006     6.371133
 ------------------------------------------------------



--------------------------------------------------------------------------------------------------------




--------------------------------------------------------------------------------------------------------




 MACROSCOPIC STATIC DIELECTRIC TENSOR (including local field effects in DFT)
 ------------------------------------------------------
           6.955972     0.000004    -0.017500
           0.000006     6.957531    -0.000003
          -0.017499    -0.000006     6.371133
 ------------------------------------------------------


 PIEZOELECTRIC TENSOR (including local field effects)  for field in x, y, z        (e  Angst)
          XX          YY          ZZ          XY          YZ          ZX
  --------------------------------------------------------------------------------
  x     0.10070     0.58892     0.91487     0.00091     0.00027    -0.04739
  y     0.00059     0.00059    -0.00001    -0.12505     0.05620    -0.00017
  z    -0.03357    -0.07409    -0.00282    -0.00013     0.00039    -0.17932

 PIEZOELECTRIC TENSOR (including local field effects)  for field in x, y, z        (C/m^2)
          XX          YY          ZZ          XY          YZ          ZX
  --------------------------------------------------------------------------------
  x     0.00130     0.00759     0.01179     0.00001     0.00000    -0.00061
  y     0.00001     0.00001    -0.00000    -0.00161     0.00072    -0.00000
  z    -0.00043    -0.00095    -0.00004    -0.00000     0.00001    -0.00231

 BORN EFFECTIVE CHARGES (including local field effects) (in |e|, cummulative output)
 ---------------------------------------------------------------------------------
 ion    1
    1     6.64139     0.00006     0.03988
    2     0.00005     6.65989    -0.00025
    3    -0.17584    -0.00018     5.78773
 ion    2
    1     6.65735     0.00060     0.00987
    2     0.00657     6.65869    -0.00000
    3    -0.00866     0.00059     5.78703
 ion    3
    1     6.65760    -0.00065     0.01029
    2    -0.00664     6.66002     0.00025
    3    -0.00827    -0.00043     5.78773
 ion    4
    1     6.80162    -0.00010    -0.10675
    2     0.00002     6.55966     0.00006
    3    -0.28582     0.00024     5.71818
 ion    5
    1     6.65412    -0.01373     0.00770
    2    -0.00031     6.60930     0.01100
    3     0.00323    -0.02022     5.78173
 ion    6
    1     6.65705     0.01372     0.00768
    2     0.00034     6.61338    -0.01113
    3     0.00324     0.01996     5.78178
 ion    7
    1     6.42958    -0.00001    -0.09628
    2    -0.00006     6.72695    -0.00027
    3    -0.28101    -0.00017     5.84173
 ion    8
    1     6.66292    -0.02491     0.01341
    2    -0.00088     6.69478    -0.00872
    3     0.00259     0.01533     5.79382
 ion    9
    1     6.66315     0.02499     0.01306
    2     0.00100     6.69611     0.00900
    3     0.00216    -0.01518     5.79452
 ion   10
    1     6.65730     0.00216    -0.00991
    2    -0.00394     6.66043     0.00101
    3     0.00827    -0.00035     5.78838
 ion   11
    1     6.65755    -0.00226    -0.01035
    2     0.00389     6.66176    -0.00133
    3     0.00780     0.00017     5.78907
 ion   12
    1     6.65944     0.00008    -0.00753
    2     0.00005     6.66079     0.00028
    3     0.00177     0.00019     5.78818
 ion   13
    1     6.64450     0.01260    -0.01642
    2     0.00305     6.70828     0.07229
    3    -0.00299     0.02225     5.79941
 ion   14
    1     6.64743    -0.01261    -0.01645
    2    -0.00305     6.71238    -0.07225
    3    -0.00302    -0.02205     5.79945
 ion   15
    1     6.66023    -0.00000    -0.00367
    2     0.00003     6.65563    -0.00015
    3    -0.00027    -0.00023     5.78036
 ion   16
    1     6.67120     0.01600    -0.02947
    2     0.00342     6.61418    -0.06272
    3    -0.00498    -0.01697     5.76928
 ion   17
    1     6.67143    -0.01592    -0.02910
    2    -0.00336     6.61554     0.06240
    3    -0.00458     0.01678     5.76998
 ion   18
    1     6.66034    -0.00006    -0.00675
    2    -0.00008     6.66390     0.00025
    3    -0.00049     0.00018     5.79301
 ion   19
    1     6.65474    -0.00175     0.00805
    2    -0.00179     6.64773     0.00834
    3    -0.00207     0.00564     5.78872
 ion   20
    1     6.65768     0.00173     0.00804
    2     0.00177     6.65185    -0.00845
    3    -0.00208    -0.00580     5.78878
 ion   21
    1     6.65860    -0.00001     0.00317
    2    -0.00002     6.66059     0.00009
    3    -0.00067     0.00024     5.78805
 ion   22
    1     6.66230    -0.00305     0.00723
    2    -0.00254     6.66908    -0.00825
    3    -0.00058    -0.00631     5.78413
 ion   23
    1     6.66255     0.00309     0.00685
    2     0.00255     6.67038     0.00852
    3    -0.00098     0.00650     5.78482
 ion   24
    1     6.66185    -0.00007     0.00214
    2    -0.00008     6.66042    -0.00029
    3    -0.00041    -0.00021     5.78697
 ion   25
    1     6.66417    -0.03518    -0.07100
    2     0.00442     6.65467     0.00361
    3     0.00321    -0.00064     5.78355
 ion   26
    1     6.66437     0.03507    -0.07061
    2    -0.00455     6.65599    -0.00338
    3     0.00360     0.00088     5.78424
 ion   27
    1     6.66246     0.00005    -0.02300
    2     0.00004     6.65999    -0.00031
    3     0.00089    -0.00016     5.78780
 ion   28
    1     6.60900    -0.00002    -0.05662
    2     0.00005     6.66450    -0.00014
    3    -0.01476    -0.00025     5.80134
 ion   29
    1     6.65427    -0.00118    -0.00844
    2     0.00101     6.66222    -0.00015
    3    -0.00118    -0.00987     5.78333
 ion   30
    1     6.65724     0.00116    -0.00845
    2    -0.00094     6.66633     0.00027
    3    -0.00120     0.01011     5.78338
 ion   31
    1     6.70614    -0.00004    -0.07122
    2    -0.00007     6.65587     0.00025
    3    -0.02690     0.00018     5.77227
 ion   32
    1     6.66214     0.00066    -0.00920
    2     0.00130     6.65339     0.00083
    3    -0.00181     0.01165     5.79296
 ion   33
    1     6.66235    -0.00057    -0.00882
    2    -0.00117     6.65469    -0.00118
    3    -0.00140    -0.01182     5.79363
 ion   34
    1     6.69002     0.00008    -0.27649
    2     0.00010     6.66968     0.00027
    3     0.02067     0.00017     5.77413
 ion   35
    1     6.66321     0.04101     0.03719
    2    -0.00244     6.66114     0.00091
    3     0.00318     0.00119     5.78955
 ion   36
    1     6.66353    -0.04109     0.03678
    2     0.00245     6.66245    -0.00122
    3     0.00274    -0.00137     5.79024
 ion   37
    1    -5.51751    -0.00004     0.05537
    2    -0.00001    -1.11053    -0.00002
    3     0.13793    -0.00004    -2.89163
 ion   38
    1    -5.53521    -0.00117     0.00618
    2     0.00067    -1.12814     0.00228
    3     0.00258     0.00096    -2.88882
 ion   39
    1    -5.53553     0.00122     0.00615
    2    -0.00067    -1.12938    -0.00223
    3     0.00261    -0.00094    -2.88941
 ion   40
    1    -5.51568     0.00018     0.06988
    2     0.00009    -1.13415    -0.00001
    3     0.14339     0.00001    -2.89723
 ion   41
    1    -5.53422    -0.00242     0.00698
    2    -0.00080    -1.11518    -0.00302
    3     0.00034    -0.00079    -2.89964
 ion   42
    1    -5.53433     0.00231     0.00698
    2     0.00071    -1.11632     0.00306
    3     0.00032     0.00079    -2.89970
 ion   43
    1    -5.52429     0.00009     0.32146
    2     0.00009    -1.12135    -0.00002
    3     0.44890    -0.00003    -2.88245
 ion   44
    1    -5.53789     0.00326    -0.03152
    2     0.00011    -1.12167    -0.00059
    3     0.00008     0.00027    -2.89498
 ion   45
    1    -5.53809    -0.00312    -0.03151
    2    -0.00002    -1.12285     0.00060
    3     0.00013    -0.00028    -2.89505
 ion   46
    1    -1.12267    -0.00007     0.00691
    2    -0.00015    -5.53810     0.00010
    3     0.00664     0.00032    -2.89467
 ion   47
    1    -1.12312     0.00241     0.00136
    2    -0.00134    -5.53776     0.00006
    3     0.00051    -0.00037    -2.89389
 ion   48
    1    -1.12314    -0.00236     0.00136
    2     0.00148    -5.53668    -0.00015
    3     0.00056     0.00009    -2.89396
 ion   49
    1    -1.12524    -0.00002     0.03380
    2    -0.00004    -5.62236     0.00009
    3     0.00649     0.00027    -2.86646
 ion   50
    1    -1.12638     0.00429     0.00197
    2     0.00048    -5.53033     0.00251
    3    -0.00054    -0.01108    -2.88458
 ion   51
    1    -1.12650    -0.00428     0.00195
    2    -0.00055    -5.52941    -0.00250
    3    -0.00055     0.01083    -2.88519
 ion   52
    1    -1.11804     0.00004     0.03978
    2     0.00010    -5.46040     0.00010
    3     0.00853     0.00034    -2.91108
 ion   53
    1    -1.11969     0.00737     0.00357
    2     0.00040    -5.54288    -0.00101
    3    -0.00025     0.01168    -2.90153
 ion   54
    1    -1.11972    -0.00748     0.00357
    2    -0.00061    -5.54180     0.00096
    3    -0.00029    -0.01196    -2.90161
 ion   55
    1    -1.12176    -0.00809    -0.00459
    2     0.00547    -5.53709    -0.00095
    3     0.00642     0.00158    -2.89462
 ion   56
    1    -1.12179     0.00817    -0.00460
    2    -0.00531    -5.53606     0.00103
    3     0.00641    -0.00125    -2.89473
 ion   57
    1    -1.12297    -0.00006    -0.00066
    2    -0.00013    -5.53623    -0.00009
    3    -0.00038    -0.00031    -2.89397
 ion   58
    1    -1.11819    -0.05060     0.00547
    2     0.01600    -5.46536    -0.07394
    3     0.00058    -0.00539    -2.91471
 ion   59
    1    -1.11833     0.05067     0.00550
    2    -0.01597    -5.46438     0.07406
    3     0.00057     0.00572    -2.91530
 ion   60
    1    -1.12719    -0.00001     0.00219
    2    -0.00001    -5.52603    -0.00004
    3     0.00069    -0.00027    -2.88702
 ion   61
    1    -1.11929    -0.07035     0.01444
    2     0.01494    -5.58919     0.06441
    3     0.00347    -0.00320    -2.87129
 ion   62
    1    -1.11930     0.07024     0.01446
    2    -0.01504    -5.58812    -0.06437
    3     0.00348     0.00350    -2.87139
 ion   63
    1    -1.11873     0.00011     0.00290
    2     0.00017    -5.54280    -0.00008
    3     0.00057    -0.00030    -2.90019
 ion   64
    1    -5.53506     0.00021    -0.00622
    2    -0.00034    -1.12039     0.00218
    3     0.00067     0.00327    -2.89168
 ion   65
    1    -5.53536    -0.00019    -0.00619
    2     0.00034    -1.12164    -0.00221
    3     0.00070    -0.00336    -2.89224
 ion   66
    1    -5.53681    -0.00002    -0.00239
    2    -0.00001    -1.12509     0.00002
    3     0.00022     0.00002    -2.89265
 ion   67
    1    -5.53410     0.00080    -0.00706
    2     0.00028    -1.12443    -0.00263
    3    -0.00087    -0.00383    -2.89498
 ion   68
    1    -5.53427    -0.00095    -0.00704
    2    -0.00036    -1.12554     0.00262
    3    -0.00082     0.00378    -2.89502
 ion   69
    1    -5.53576     0.00015    -0.00236
    2     0.00007    -1.12143     0.00002
    3    -0.00003     0.00000    -2.89514
 ion   70
    1    -5.53718    -0.00321     0.04044
    2     0.00006    -1.12224    -0.00051
    3     0.00016    -0.00024    -2.89226
 ion   71
    1    -5.53732     0.00334     0.04044
    2     0.00002    -1.12338     0.00054
    3     0.00014     0.00022    -2.89232
 ion   72
    1    -5.53753    -0.00012     0.01501
    2    -0.00008    -1.12322     0.00001
    3    -0.00016    -0.00002    -2.89371
 ion   73
    1    -5.53530     0.00078     0.01048
    2     0.00002    -1.12231    -0.00005
    3     0.00856     0.00012    -2.89366
 ion   74
    1    -5.53546    -0.00061     0.01051
    2     0.00008    -1.12349     0.00005
    3     0.00862    -0.00012    -2.89372
 ion   75
    1    -5.53604    -0.00016     0.00570
    2    -0.00007    -1.12344    -0.00002
    3     0.00357    -0.00000    -2.89376
 ion   76
    1    -5.53957     0.00143     0.00631
    2     0.00059    -1.12473    -0.00570
    3    -0.00449     0.00075    -2.89506
 ion   77
    1    -5.53986    -0.00141     0.00630
    2    -0.00058    -1.12597     0.00575
    3    -0.00451    -0.00071    -2.89562
 ion   78
    1    -5.53879    -0.00000     0.00165
    2     0.00001    -1.12248    -0.00002
    3    -0.00145    -0.00005    -2.89363
 ion   79
    1    -5.53811     0.00147     0.01026
    2    -0.00053    -1.11978     0.00445
    3    -0.00489    -0.00102    -2.88948
 ion   80
    1    -5.53819    -0.00160     0.01025
    2     0.00049    -1.12091    -0.00441
    3    -0.00489     0.00102    -2.88955
 ion   81
    1    -5.53751     0.00015     0.00302
    2     0.00009    -1.12440    -0.00001
    3    -0.00195     0.00000    -2.89299
 ion   82
    1    -1.11884    -0.00761     0.00090
    2     0.00303    -5.54318    -0.00961
    3     0.00513    -0.01017    -2.89561
 ion   83
    1    -1.11896     0.00759     0.00092
    2    -0.00308    -5.54224     0.00955
    3     0.00514     0.00989    -2.89621
 ion   84
    1    -1.12022    -0.00003     0.00041
    2     0.00001    -5.53874     0.00004
    3     0.00114     0.00027    -2.89561
 ion   85
    1    -1.12629    -0.00446     0.00200
    2     0.00297    -5.53174     0.01008
    3     0.00568     0.01277    -2.89029
 ion   86
    1    -1.12632     0.00432     0.00199
    2    -0.00311    -5.53067    -0.01014
    3     0.00564    -0.01310    -2.89041
 ion   87
    1    -1.12553     0.00005     0.00074
    2     0.00012    -5.53406     0.00009
    3     0.00106     0.00031    -2.89193
 ion   88
    1    -1.12429     0.07962     0.02773
    2    -0.00452    -5.54151    -0.00460
    3    -0.01131     0.00585    -2.89300
 ion   89
    1    -1.12430    -0.07955     0.02775
    2     0.00469    -5.54042     0.00451
    3    -0.01126    -0.00618    -2.89310
 ion   90
    1    -1.12341    -0.00009     0.00288
    2    -0.00014    -5.53693     0.00011
    3    -0.00198     0.00031    -2.89403
 ion   91
    1    -1.11905    -0.00002     0.00361
    2    -0.00002    -5.52226    -0.00004
    3    -0.00124    -0.00030    -2.90106
 ion   92
    1    -1.12041     0.00071    -0.00065
    2    -0.00047    -5.53759    -0.00094
    3    -0.00067    -0.00023    -2.89588
 ion   93
    1    -1.12055    -0.00068    -0.00061
    2     0.00043    -5.53664     0.00101
    3    -0.00066     0.00049    -2.89647
 ion   94
    1    -1.12687     0.00009     0.00652
    2     0.00014    -5.55230    -0.00009
    3    -0.00095    -0.00031    -2.88536
 ion   95
    1    -1.12530    -0.00015    -0.00017
    2    -0.00046    -5.53740     0.00086
    3    -0.00077    -0.00013    -2.89113
 ion   96
    1    -1.12534     0.00008    -0.00019
    2     0.00033    -5.53630    -0.00072
    3    -0.00076     0.00048    -2.89121
 ion   97
    1    -1.12132    -0.00003     0.08567
    2    -0.00014    -5.52950    -0.00008
    3    -0.00729    -0.00033    -2.88809
 ion   98
    1    -1.12346    -0.01467     0.00533
    2     0.00091    -5.53709    -0.00027
    3     0.00129    -0.00151    -2.89417
 ion   99
    1    -1.12350     0.01477     0.00534
    2    -0.00077    -5.53602     0.00040
    3     0.00127     0.00179    -2.89427
 ion  100
    1    -5.53058    -0.00014    -0.00612
    2    -0.00010    -1.12347    -0.00002
    3    -0.00045    -0.00001    -2.89291
 ion  101
    1    -5.53506    -0.00168    -0.00802
    2    -0.00005    -1.12224    -0.00006
    3    -0.00038    -0.00014    -2.89421
 ion  102
    1    -5.53525     0.00178    -0.00804
    2     0.00007    -1.12340     0.00008
    3    -0.00037     0.00016    -2.89426
 ion  103
    1    -5.53880    -0.00004    -0.02449
    2    -0.00003    -1.12993     0.00005
    3     0.00547     0.00005    -2.83092
 ion  104
    1    -5.53888    -0.00271    -0.00330
    2    -0.00022    -1.11942    -0.00029
    3     0.00025     0.00005    -2.89549
 ion  105
    1    -5.53924     0.00272    -0.00324
    2     0.00016    -1.12064     0.00029
    3     0.00026    -0.00006    -2.89606
 ion  106
    1    -5.53670     0.00014    -0.04796
    2     0.00004    -1.11768     0.00002
    3    -0.00571     0.00000    -2.94965
 ion  107
    1    -5.53757    -0.00246    -0.00610
    2     0.00018    -1.12536    -0.00066
    3     0.00014    -0.00037    -2.89265
 ion  108
    1    -5.53774     0.00228    -0.00614
    2    -0.00031    -1.12649     0.00063
    3     0.00019     0.00037    -2.89271


--------------------------------------------------------------------------------------------------------


     LOOP+:  cpu time   1888.2683: real time   1944.3242
    4ORBIT:  cpu time      0.0000: real time      0.0000

 total amount of memory used by VASP MPI-rank0   266725. kBytes
=======================================================================

   base      :      30000. kBytes
   nonlr-proj:      19556. kBytes
   fftplans  :      10927. kBytes
   grid      :      23181. kBytes
   one-center:       1679. kBytes
   wavefun   :     181382. kBytes



 General timing and accounting informations for this job:
 ========================================================

                  Total CPU time used (sec):     1898.723
                            User time (sec):     1852.451
                          System time (sec):       46.273
                         Elapsed time (sec):     1964.241

                   Maximum memory used (kb):     1069476.
                   Average memory used (kb):          N/A

                          Minor page faults:      2485650
                          Major page faults:         2442
                 Voluntary context switches:       194698
