 vasp.6.3.0 20Jan22 (build Mar 29 2022 16:24:06) complex

 executed on             Bridges2 date 2023.01.12  19:13:01
 running on   32 total cores
 distrk:  each k-point on    4 cores,    8 groups
 distr:  one band on NCORE=   1 cores,    4 groups


--------------------------------------------------------------------------------------------------------


 INCAR:
   ICHARG = 2
   LWAVE = .FALSE.
   LCHARG = .FALSE.
   LVTOT = .FALSE.
   NCORE = 1
   KPAR = 8
   EDIFF = 1E-7
   NELM = 80
   PREC = Normal
   LREAL = Auto
   NELMIN = 4
   ENCUT = 400.0 eV
   ISPIN = 1
   ISMEAR = 0
   SIGMA = 0.10
   NSW = 0
   LEPSILON = .TRUE.
   LPEAD = .TRUE.
   ISYM = 0

 POTCAR:    PAW_PBE Ti_pv 07Sep2000
 POTCAR:    PAW_PBE O 08Apr2002
 -----------------------------------------------------------------------------
|                                                                             |
|           W    W    AA    RRRRR   N    N  II  N    N   GGGG   !!!           |
|           W    W   A  A   R    R  NN   N  II  NN   N  G    G  !!!           |
|           W    W  A    A  R    R  N N  N  II  N N  N  G       !!!           |
|           W WW W  AAAAAA  RRRRR   N  N N  II  N  N N  G  GGG   !            |
|           WW  WW  A    A  R   R   N   NN  II  N   NN  G    G                |
|           W    W  A    A  R    R  N    N  II  N    N   GGGG   !!!           |
|                                                                             |
|     For optimal performance we recommend to set                             |
|       NCORE = 2 up to number-of-cores-per-socket                            |
|     NCORE specifies how many cores store one orbital (NPAR=cpu/NCORE).      |
|     This setting can greatly improve the performance of VASP for DFT.       |
|     The default, NCORE=1 might be grossly inefficient on modern             |
|     multi-core architectures or massively parallel machines. Do your        |
|     own testing! More info at https://www.vasp.at/wiki/index.php/NCORE      |
|     Unfortunately you need to use the default for GW and RPA                |
|     calculations (for HF NCORE is supported but not extensively tested      |
|     yet).                                                                   |
|                                                                             |
 -----------------------------------------------------------------------------

 POTCAR:    PAW_PBE Ti_pv 07Sep2000
   VRHFIN =Ti: d3 s1
   LEXCH  = PE
   EATOM  =  1042.5995 eV,   76.6289 Ry

   TITEL  = PAW_PBE Ti_pv 07Sep2000
   LULTRA =        F    use ultrasoft PP ?
   IUNSCR =        1    unscreen: 0-lin 1-nonlin 2-no
   RPACOR =    2.200    partial core radius
   POMASS =   47.880; ZVAL   =   10.000    mass and valenz
   RCORE  =    2.500    outmost cutoff radius
   RWIGS  =    2.500; RWIGS  =    1.323    wigner-seitz radius (au A)
   ENMAX  =  222.335; ENMIN  =  166.751 eV
   RCLOC  =    1.701    cutoff for local pot
   LCOR   =        T    correct aug charges
   LPAW   =        T    paw PP
   EAUG   =  482.848
   DEXC   =    0.000
   RMAX   =    2.564    core radius for proj-oper
   RAUG   =    1.300    factor for augmentation sphere
   RDEP   =    2.538    radius for radial grids
   RDEPT  =    1.952    core radius for aug-charge

   Atomic configuration
    8 entries
     n  l   j            E        occ.
     1  0  0.50     -4865.3608   2.0000
     2  0  0.50      -533.1368   2.0000
     2  1  1.50      -440.5031   6.0000
     3  0  0.50       -59.3186   2.0000
     3  1  1.50       -35.7012   6.0000
     3  2  2.50        -1.9157   3.0000
     4  0  0.50        -3.7291   1.0000
     4  3  2.50        -1.3606   0.0000
   Description
     l       E           TYP  RCUT    TYP  RCUT
     1    -35.7012140     23  2.300
     1     -1.3605826     23  2.300
     2     -1.9156996     23  2.500
     2     -0.4063033     23  2.500
     0     -3.7290856     23  2.500
     0     20.4087390     23  2.500
  local pseudopotential read in
  partial core-charges read in
  partial kinetic energy density read in
  atomic valenz-charges read in
  non local Contribution for L=           1  read in
    real space projection operators read in
  non local Contribution for L=           1  read in
    real space projection operators read in
  non local Contribution for L=           2  read in
    real space projection operators read in
  non local Contribution for L=           2  read in
    real space projection operators read in
  non local Contribution for L=           0  read in
    real space projection operators read in
  non local Contribution for L=           0  read in
    real space projection operators read in
    PAW grid and wavefunctions read in

   number of l-projection  operators is LMAX  =           6
   number of lm-projection operators is LMMAX =          18

 POTCAR:    PAW_PBE O 08Apr2002
   VRHFIN =O: s2p4
   LEXCH  = PE
   EATOM  =   432.3788 eV,   31.7789 Ry

   TITEL  = PAW_PBE O 08Apr2002
   LULTRA =        F    use ultrasoft PP ?
   IUNSCR =        1    unscreen: 0-lin 1-nonlin 2-no
   RPACOR =    1.200    partial core radius
   POMASS =   16.000; ZVAL   =    6.000    mass and valenz
   RCORE  =    1.520    outmost cutoff radius
   RWIGS  =    1.550; RWIGS  =    0.820    wigner-seitz radius (au A)
   ENMAX  =  400.000; ENMIN  =  300.000 eV
   ICORE  =        2    local potential
   LCOR   =        T    correct aug charges
   LPAW   =        T    paw PP
   EAUG   =  605.392
   DEXC   =    0.000
   RMAX   =    1.553    core radius for proj-oper
   RAUG   =    1.300    factor for augmentation sphere
   RDEP   =    1.550    radius for radial grids
   RDEPT  =    1.329    core radius for aug-charge

   Atomic configuration
    4 entries
     n  l   j            E        occ.
     1  0  0.50      -514.6923   2.0000
     2  0  0.50       -23.9615   2.0000
     2  1  0.50        -9.0305   4.0000
     3  2  1.50        -9.5241   0.0000
   Description
     l       E           TYP  RCUT    TYP  RCUT
     0    -23.9615318     23  1.200
     0     -9.5240782     23  1.200
     1     -9.0304911     23  1.520
     1      8.1634956     23  1.520
     2     -9.5240782      7  1.500
  local pseudopotential read in
  partial core-charges read in
  partial kinetic energy density read in
  kinetic energy density of atom read in
  atomic valenz-charges read in
  non local Contribution for L=           0  read in
    real space projection operators read in
  non local Contribution for L=           0  read in
    real space projection operators read in
  non local Contribution for L=           1  read in
    real space projection operators read in
  non local Contribution for L=           1  read in
    real space projection operators read in
    PAW grid and wavefunctions read in

   number of l-projection  operators is LMAX  =           4
   number of lm-projection operators is LMMAX =           8

 Optimization of the real space projectors (new method)

 maximal supplied QI-value         = 15.12
 optimisation between [QCUT,QGAM] = [ 10.13, 20.41] = [ 28.73,116.64] Ry
 Optimized for a Real-space Cutoff    1.51 Angstroem

   l    n(q)    QCUT    max X(q) W(low)/X(q) W(high)/X(q)  e(spline)
   1      9    10.129     4.216    0.12E-04    0.72E-04    0.60E-07
   1      9    10.129     5.422    0.84E-04    0.21E-03    0.15E-06
   2      8    10.129    72.084    0.33E-03    0.35E-04    0.17E-06
   2      8    10.129    65.965    0.33E-03    0.37E-04    0.17E-06
   0      9    10.129    41.531    0.17E-03    0.19E-03    0.81E-07
   0      9    10.129    16.290    0.12E-03    0.14E-03    0.64E-07
 Optimization of the real space projectors (new method)

 maximal supplied QI-value         = 24.76
 optimisation between [QCUT,QGAM] = [ 10.15, 20.30] = [ 28.85,115.39] Ry
 Optimized for a Real-space Cutoff    1.38 Angstroem

   l    n(q)    QCUT    max X(q) W(low)/X(q) W(high)/X(q)  e(spline)
   0      8    10.150    20.381    0.22E-03    0.32E-03    0.29E-06
   0      8    10.150    15.268    0.23E-03    0.35E-03    0.30E-06
   1      8    10.150     5.964    0.46E-03    0.53E-03    0.21E-06
   1      8    10.150     5.382    0.38E-03    0.45E-03    0.19E-06
  PAW_PBE Ti_pv 07Sep2000               :
 energy of atom  1       EATOM=-1042.5995
 kinetic energy error for atom=    0.0037 (will be added to EATOM!!)
  PAW_PBE O 08Apr2002                   :
 energy of atom  2       EATOM= -432.3788
 kinetic energy error for atom=    0.1156 (will be added to EATOM!!)


 POSCAR: Ti4 O8
  positions in cartesian coordinates
  No initial velocities read in
 exchange correlation table for  LEXCH =        8
   RHO(1)=    0.500       N(1)  =     2000
   RHO(2)=  100.500       N(2)  =     4000



--------------------------------------------------------------------------------------------------------


 ion  position               nearest neighbor table
   1  0.167  0.167  0.500-  56 1.94  55 1.94  40 1.94  37 1.94 100 2.00  46 2.00  31 3.06  28 3.06
                            11 3.06  10 3.06
   2  0.167  0.500  0.500-  56 1.94  41 1.94  38 1.94  57 1.94 101 2.00  47 2.00  11 3.06  32 3.06
                            29 3.06  12 3.06
   3  0.167  0.833  0.500-  57 1.94  42 1.94  39 1.94  55 1.94 102 2.00  48 2.00  12 3.06  33 3.06
                            30 3.06  10 3.06
   4  0.500  0.167  0.500-  43 1.92  40 1.94  59 1.94  58 1.94 103 2.00  49 2.00  31 3.06  14 3.06
                            13 3.06  34 3.06
   5  0.500  0.500  0.500-  59 1.94  41 1.94  60 1.94  44 1.94 104 2.00  50 2.00  32 3.06  14 3.06
                            35 3.06  15 3.06
   6  0.500  0.833  0.500-  60 1.94  42 1.94  58 1.94  45 1.94 105 2.00  51 2.00  15 3.06  33 3.06
                            13 3.06  36 3.06
   7  0.833  0.167  0.500-  43 1.92  62 1.94  61 1.94  37 1.94 106 2.00  52 2.00  34 3.06  17 3.06
                            16 3.06  28 3.06
   8  0.833  0.500  0.500-  44 1.94  62 1.94  63 1.94  38 1.94 107 2.00  53 2.00  35 3.06  17 3.06
                            29 3.06  18 3.06
   9  0.833  0.833  0.500-  63 1.94  45 1.94  61 1.94  39 1.94 108 2.00  54 2.00  36 3.06  18 3.06
                            30 3.06  16 3.06
  10  0.167  0.000  0.750-  67 1.94  64 1.94  46 1.94  48 1.94  73 2.00  55 2.00  22 3.06  19 3.06
                             1 3.06   3 3.06
  11  0.167  0.333  0.750-  47 1.94  46 1.94  68 1.94  65 1.94  74 2.00  56 2.00   2 3.06  23 3.06
                            20 3.06   1 3.06
  12  0.167  0.667  0.750-  48 1.94  69 1.94  66 1.94  47 1.94  75 2.00  57 2.00   3 3.06  24 3.06
                            21 3.06   2 3.06
  13  0.500  0.000  0.750-  67 1.94  49 1.94  51 1.94  70 1.94  76 2.00  58 2.00  22 3.06   4 3.06
                            25 3.06   6 3.06
  14  0.500  0.333  0.750-  50 1.94  68 1.94  49 1.94  71 1.94  77 2.00  59 2.00  23 3.06   5 3.06
                             4 3.06  26 3.06
  15  0.500  0.667  0.750-  51 1.94  69 1.94  50 1.94  72 1.94  78 2.00  60 2.00   6 3.06  24 3.06
                            27 3.06   5 3.06
  16  0.833  0.000  0.750-  70 1.94  52 1.94  64 1.94  54 1.94  79 2.00  61 2.00  25 3.06   7 3.06
                            19 3.06   9 3.06
  17  0.833  0.333  0.750-  71 1.94  53 1.94  52 1.94  65 1.94  80 2.00  62 2.00  26 3.06   8 3.06
                             7 3.06  20 3.06
  18  0.833  0.667  0.750-  54 1.94  72 1.94  66 1.94  53 1.94  81 2.00  63 2.00  27 3.06   9 3.06
                            21 3.06   8 3.06
  19  0.000  0.000  0.000-  73 1.94  91 1.94  79 1.94  93 1.94  82 2.00  64 2.00  10 3.06  28 3.06
                            16 3.06  30 3.06
  20  0.000  0.333  0.000-  92 1.94  74 1.94  91 1.94  80 1.94  83 2.00  65 2.00  29 3.06  11 3.06
                            28 3.06  17 3.06
  21  0.000  0.667  0.000-  93 1.94  75 1.94  81 1.94  92 1.94  84 2.00  66 2.00  30 3.06  12 3.06
                            18 3.06  29 3.06
  22  0.333  0.000  0.000-  76 1.94  73 1.94  94 1.94  96 1.94  85 2.00  67 2.00  13 3.06  10 3.06
                            31 3.06  33 3.06
  23  0.333  0.333  0.000-  77 1.94  95 1.94  74 1.94  94 1.94  86 2.00  68 2.00  14 3.06  32 3.06
                            11 3.06  31 3.06
  24  0.333  0.667  0.000-  96 1.94  78 1.94  75 1.94  95 1.94  87 2.00  69 2.00  33 3.06  15 3.06
                            12 3.06  32 3.06
  25  0.667  0.000  0.000-  79 1.94  97 1.94  76 1.94  99 1.94  88 2.00  70 2.00  16 3.06  34 3.06
                            13 3.06  36 3.06
  26  0.667  0.333  0.000-  80 1.94  98 1.94  97 1.94  77 1.94  89 2.00  71 2.00  17 3.06  35 3.06
                            34 3.06  14 3.06
  27  0.667  0.667  0.000-  81 1.94  99 1.94  78 1.94  98 1.94  90 2.00  72 2.00  18 3.06  36 3.06
                            15 3.06  35 3.06
  28  0.000  0.167  0.250-  83 1.94  82 1.94 100 1.94 106 1.94  37 2.00  91 2.00   1 3.06  20 3.06
                            19 3.06   7 3.06
  29  0.000  0.500  0.250-  83 1.94 101 1.94  84 1.94 107 1.94  38 2.00  92 2.00  20 3.06   2 3.06
                             8 3.06  21 3.06
  30  0.000  0.833  0.250-  84 1.94 102 1.94  82 1.94 108 1.94  39 2.00  93 2.00  21 3.06   3 3.06
                             9 3.06  19 3.06
  31  0.333  0.167  0.250- 103 1.94  86 1.94  85 1.94 100 1.94  40 2.00  94 2.00   4 3.06   1 3.06
                            23 3.06  22 3.06
  32  0.333  0.500  0.250-  86 1.94 104 1.94 101 1.94  87 1.94  41 2.00  95 2.00   5 3.06  23 3.06
                             2 3.06  24 3.06
  33  0.333  0.833  0.250-  87 1.94 105 1.94 102 1.94  85 1.94  42 2.00  96 2.00  24 3.06   6 3.06
                             3 3.06  22 3.06
  34  0.667  0.167  0.250- 106 1.94  89 1.94  88 1.94 103 1.94  97 2.00  43 2.10   7 3.06  26 3.06
                            25 3.06   4 3.06
  35  0.667  0.500  0.250- 107 1.94  89 1.94  90 1.94 104 1.94  44 2.00  98 2.00   8 3.06  26 3.06
                             5 3.06  27 3.06
  36  0.667  0.833  0.250-  90 1.94 108 1.94  88 1.94 105 1.94  45 2.00  99 2.00   9 3.06  27 3.06
                            25 3.06   6 3.06
  37  0.000  0.167  0.458-   1 1.94   7 1.94  28 2.00
  38  0.000  0.500  0.458-   2 1.94   8 1.94  29 2.00
  39  0.000  0.833  0.458-   3 1.94   9 1.94  30 2.00
  40  0.333  0.167  0.458-   4 1.94   1 1.94  31 2.00
  41  0.333  0.500  0.458-   5 1.94   2 1.94  32 2.00
  42  0.333  0.833  0.458-   6 1.94   3 1.94  33 2.00
  43  0.667  0.167  0.468-   7 1.92   4 1.92  34 2.10
  44  0.667  0.500  0.458-   8 1.94   5 1.94  35 2.00
  45  0.667  0.833  0.458-   9 1.94   6 1.94  36 2.00
  46  0.167  0.167  0.708-  11 1.94  10 1.94   1 2.00
  47  0.167  0.500  0.708-  11 1.94  12 1.94   2 2.00
  48  0.167  0.833  0.708-  12 1.94  10 1.94   3 2.00
  49  0.500  0.167  0.708-  14 1.94  13 1.94   4 2.00
  50  0.500  0.500  0.708-  14 1.94  15 1.94   5 2.00
  51  0.500  0.833  0.708-  15 1.94  13 1.94   6 2.00
  52  0.833  0.167  0.708-  17 1.94  16 1.94   7 2.00
  53  0.833  0.500  0.708-  17 1.94  18 1.94   8 2.00
  54  0.833  0.833  0.708-  18 1.94  16 1.94   9 2.00
  55  0.167  0.000  0.542-   1 1.94   3 1.94  10 2.00
  56  0.167  0.333  0.542-   2 1.94   1 1.94  11 2.00
  57  0.167  0.667  0.542-   3 1.94   2 1.94  12 2.00
  58  0.500  0.000  0.542-   4 1.94   6 1.94  13 2.00
  59  0.500  0.333  0.542-   5 1.94   4 1.94  14 2.00
  60  0.500  0.667  0.542-   6 1.94   5 1.94  15 2.00
  61  0.833  0.000  0.542-   7 1.94   9 1.94  16 2.00
  62  0.833  0.333  0.542-   8 1.94   7 1.94  17 2.00
  63  0.833  0.667  0.542-   9 1.94   8 1.94  18 2.00
  64  0.000  0.000  0.792-  10 1.94  16 1.94  19 2.00
  65  0.000  0.333  0.792-  11 1.94  17 1.94  20 2.00
  66  0.000  0.667  0.792-  12 1.94  18 1.94  21 2.00
  67  0.333  0.000  0.792-  13 1.94  10 1.94  22 2.00
  68  0.333  0.333  0.792-  14 1.94  11 1.94  23 2.00
  69  0.333  0.667  0.792-  15 1.94  12 1.94  24 2.00
  70  0.667  0.000  0.792-  16 1.94  13 1.94  25 2.00
  71  0.667  0.333  0.792-  17 1.94  14 1.94  26 2.00
  72  0.667  0.667  0.792-  18 1.94  15 1.94  27 2.00
  73  0.167  0.000  0.958-  22 1.94  19 1.94  10 2.00
  74  0.167  0.333  0.958-  23 1.94  20 1.94  11 2.00
  75  0.167  0.667  0.958-  24 1.94  21 1.94  12 2.00
  76  0.500  0.000  0.958-  22 1.94  25 1.94  13 2.00
  77  0.500  0.333  0.958-  23 1.94  26 1.94  14 2.00
  78  0.500  0.667  0.958-  24 1.94  27 1.94  15 2.00
  79  0.833  0.000  0.958-  25 1.94  19 1.94  16 2.00
  80  0.833  0.333  0.958-  26 1.94  20 1.94  17 2.00
  81  0.833  0.667  0.958-  27 1.94  21 1.94  18 2.00
  82  0.000  0.000  0.208-  28 1.94  30 1.94  19 2.00
  83  0.000  0.333  0.208-  29 1.94  28 1.94  20 2.00
  84  0.000  0.667  0.208-  30 1.94  29 1.94  21 2.00
  85  0.333  0.000  0.208-  31 1.94  33 1.94  22 2.00
  86  0.333  0.333  0.208-  32 1.94  31 1.94  23 2.00
  87  0.333  0.667  0.208-  33 1.94  32 1.94  24 2.00
  88  0.667  0.000  0.208-  34 1.94  36 1.94  25 2.00
  89  0.667  0.333  0.208-  35 1.94  34 1.94  26 2.00
  90  0.667  0.667  0.208-  36 1.94  35 1.94  27 2.00
  91  0.000  0.167  0.042-  20 1.94  19 1.94  28 2.00
  92  0.000  0.500  0.042-  20 1.94  21 1.94  29 2.00
  93  0.000  0.833  0.042-  21 1.94  19 1.94  30 2.00
  94  0.333  0.167  0.042-  23 1.94  22 1.94  31 2.00
  95  0.333  0.500  0.042-  23 1.94  24 1.94  32 2.00
  96  0.333  0.833  0.042-  24 1.94  22 1.94  33 2.00
  97  0.667  0.167  0.042-  26 1.94  25 1.94  34 2.00
  98  0.667  0.500  0.042-  26 1.94  27 1.94  35 2.00
  99  0.667  0.833  0.042-  27 1.94  25 1.94  36 2.00
 100  0.167  0.167  0.292-  31 1.94  28 1.94   1 2.00
 101  0.167  0.500  0.292-  32 1.94  29 1.94   2 2.00
 102  0.167  0.833  0.292-  33 1.94  30 1.94   3 2.00
 103  0.500  0.167  0.292-  31 1.94  34 1.94   4 2.00
 104  0.500  0.500  0.292-  32 1.94  35 1.94   5 2.00
 105  0.500  0.833  0.292-  33 1.94  36 1.94   6 2.00
 106  0.833  0.167  0.292-  34 1.94  28 1.94   7 2.00
 107  0.833  0.500  0.292-  35 1.94  29 1.94   8 2.00
 108  0.833  0.833  0.292-  36 1.94  30 1.94   9 2.00


IMPORTANT INFORMATION: All symmetrisations will be switched off!
NOSYMM: (Re-)initialisation of all symmetry stuff for point group C_1.


----------------------------------------------------------------------------------------

                                     Primitive cell

  volume of cell :    1243.1447

  direct lattice vectors                    reciprocal lattice vectors
    11.376843452  0.000000000  0.000000000     0.087897843  0.000000000  0.000000000
     0.000000000 11.376843452  0.000000000     0.000000000  0.087897843  0.000000000
     0.000000000  0.000000000  9.604574204     0.000000000  0.000000000  0.104117057

  length of vectors
    11.376843452 11.376843452  9.604574204     0.087897843  0.087897843  0.104117057

  position of ions in fractional coordinates (direct lattice)
     0.166666672  0.166666672  0.500000000
     0.166666672  0.500000000  0.500000000
     0.166666672  0.833333313  0.500000000
     0.500000000  0.166666672  0.500000000
     0.500000000  0.500000000  0.500000000
     0.500000000  0.833333313  0.500000000
     0.833333313  0.166666672  0.500000000
     0.833333313  0.500000000  0.500000000
     0.833333313  0.833333313  0.500000000
     0.166666672  0.000000000  0.750000000
     0.166666672  0.333333343  0.750000000
     0.166666672  0.666666687  0.750000000
     0.500000000  0.000000000  0.750000000
     0.500000000  0.333333343  0.750000000
     0.500000000  0.666666687  0.750000000
     0.833333313  0.000000000  0.750000000
     0.833333313  0.333333343  0.750000000
     0.833333313  0.666666687  0.750000000
     0.000000000  0.000000000  0.000000000
     0.000000000  0.333333343  0.000000000
     0.000000000  0.666666687  0.000000000
     0.333333343  0.000000000  0.000000000
     0.333333343  0.333333343  0.000000000
     0.333333343  0.666666687  0.000000000
     0.666666687  0.000000000  0.000000000
     0.666666687  0.333333343  0.000000000
     0.666666687  0.666666687  0.000000000
     0.000000000  0.166666672  0.250000000
     0.000000000  0.500000000  0.250000000
     0.000000000  0.833333313  0.250000000
     0.333333343  0.166666672  0.250000000
     0.333333343  0.500000000  0.250000000
     0.333333343  0.833333313  0.250000000
     0.666666687  0.166666672  0.250000000
     0.666666687  0.500000000  0.250000000
     0.666666687  0.833333313  0.250000000
     0.000000000  0.166666672  0.457898587
     0.000000000  0.500000000  0.457898587
     0.000000000  0.833333313  0.457898587
     0.333333343  0.166666672  0.457898587
     0.333333343  0.500000000  0.457898587
     0.333333343  0.833333313  0.457898587
     0.666666687  0.166666672  0.468310293
     0.666666687  0.500000000  0.457898587
     0.666666687  0.833333313  0.457898587
     0.166666672  0.166666672  0.707898617
     0.166666672  0.500000000  0.707898617
     0.166666672  0.833333313  0.707898617
     0.500000000  0.166666672  0.707898617
     0.500000000  0.500000000  0.707898617
     0.500000000  0.833333313  0.707898617
     0.833333313  0.166666672  0.707898617
     0.833333313  0.500000000  0.707898617
     0.833333313  0.833333313  0.707898617
     0.166666672  0.000000000  0.542101383
     0.166666672  0.333333343  0.542101383
     0.166666672  0.666666687  0.542101383
     0.500000000  0.000000000  0.542101383
     0.500000000  0.333333343  0.542101383
     0.500000000  0.666666687  0.542101383
     0.833333313  0.000000000  0.542101383
     0.833333313  0.333333343  0.542101383
     0.833333313  0.666666687  0.542101383
     0.000000000  0.000000000  0.792101383
     0.000000000  0.333333343  0.792101383
     0.000000000  0.666666687  0.792101383
     0.333333343  0.000000000  0.792101383
     0.333333343  0.333333343  0.792101383
     0.333333343  0.666666687  0.792101383
     0.666666687  0.000000000  0.792101383
     0.666666687  0.333333343  0.792101383
     0.666666687  0.666666687  0.792101383
     0.166666672  0.000000000  0.957898617
     0.166666672  0.333333343  0.957898617
     0.166666672  0.666666687  0.957898617
     0.500000000  0.000000000  0.957898617
     0.500000000  0.333333343  0.957898617
     0.500000000  0.666666687  0.957898617
     0.833333313  0.000000000  0.957898617
     0.833333313  0.333333343  0.957898617
     0.833333313  0.666666687  0.957898617
     0.000000000  0.000000000  0.207898602
     0.000000000  0.333333343  0.207898602
     0.000000000  0.666666687  0.207898602
     0.333333343  0.000000000  0.207898602
     0.333333343  0.333333343  0.207898602
     0.333333343  0.666666687  0.207898602
     0.666666687  0.000000000  0.207898602
     0.666666687  0.333333343  0.207898602
     0.666666687  0.666666687  0.207898602
     0.000000000  0.166666672  0.042101406
     0.000000000  0.500000000  0.042101406
     0.000000000  0.833333313  0.042101406
     0.333333343  0.166666672  0.042101406
     0.333333343  0.500000000  0.042101406
     0.333333343  0.833333313  0.042101406
     0.666666687  0.166666672  0.042101406
     0.666666687  0.500000000  0.042101406
     0.666666687  0.833333313  0.042101406
     0.166666672  0.166666672  0.292101413
     0.166666672  0.500000000  0.292101413
     0.166666672  0.833333313  0.292101413
     0.500000000  0.166666672  0.292101413
     0.500000000  0.500000000  0.292101413
     0.500000000  0.833333313  0.292101413
     0.833333313  0.166666672  0.292101413
     0.833333313  0.500000000  0.292101413
     0.833333313  0.833333313  0.292101413

  ion indices of the primitive-cell ions
   primitive index   ion index
                 1           1
                 2           2
                 3           3
                 4           4
                 5           5
                 6           6
                 7           7
                 8           8
                 9           9
                10          10
                11          11
                12          12
                13          13
                14          14
                15          15
                16          16
                17          17
                18          18
                19          19
                20          20
                21          21
                22          22
                23          23
                24          24
                25          25
                26          26
                27          27
                28          28
                29          29
                30          30
                31          31
                32          32
                33          33
                34          34
                35          35
                36          36
                37          37
                38          38
                39          39
                40          40
                41          41
                42          42
                43          43
                44          44
                45          45
                46          46
                47          47
                48          48
                49          49
                50          50
                51          51
                52          52
                53          53
                54          54
                55          55
                56          56
                57          57
                58          58
                59          59
                60          60
                61          61
                62          62
                63          63
                64          64
                65          65
                66          66
                67          67
                68          68
                69          69
                70          70
                71          71
                72          72
                73          73
                74          74
                75          75
                76          76
                77          77
                78          78
                79          79
                80          80
                81          81
                82          82
                83          83
                84          84
                85          85
                86          86
                87          87
                88          88
                89          89
                90          90
                91          91
                92          92
                93          93
                94          94
                95          95
                96          96
                97          97
                98          98
                99          99
               100         100
               101         101
               102         102
               103         103
               104         104
               105         105
               106         106
               107         107
               108         108

----------------------------------------------------------------------------------------



 KPOINTS: K-Points

Automatic generation of k-mesh.
 Grid dimensions read from file:
 generate k-points for:    2    2    2

 Generating k-lattice:

  Cartesian coordinates                     Fractional coordinates (reciprocal lattice)
     0.043948922  0.000000000  0.000000000     0.500000000  0.000000000  0.000000000
     0.000000000  0.043948922  0.000000000     0.000000000  0.500000000  0.000000000
     0.000000000  0.000000000  0.052058529     0.000000000  0.000000000  0.500000000

  Length of vectors
     0.043948922  0.043948922  0.052058529

  Shift w.r.t. Gamma in fractional coordinates (k-lattice)
     0.500000000  0.500000000  0.500000000


 Subroutine IBZKPT returns following result:
 ===========================================

 Found      4 irreducible k-points:

 Following reciprocal coordinates:
            Coordinates               Weight
  0.250000  0.250000  0.250000      2.000000
 -0.250000  0.250000  0.250000      2.000000
 -0.250000 -0.250000  0.250000      2.000000
  0.250000 -0.250000  0.250000      2.000000

 Following cartesian coordinates:
            Coordinates               Weight
  0.021974  0.021974  0.026029      2.000000
 -0.021974  0.021974  0.026029      2.000000
 -0.021974 -0.021974  0.026029      2.000000
  0.021974 -0.021974  0.026029      2.000000


 Subroutine IBZKPT_HF returns following result:
 ==============================================

 Found      8 k-points in 1st BZ
 the following      8 k-points will be used (e.g. in the exchange kernel)
 Following reciprocal coordinates:   # in IRBZ
  0.250000  0.250000  0.250000    0.12500000   1 t-inv F
 -0.250000  0.250000  0.250000    0.12500000   2 t-inv F
 -0.250000 -0.250000  0.250000    0.12500000   3 t-inv F
  0.250000 -0.250000  0.250000    0.12500000   4 t-inv F
 -0.250000 -0.250000 -0.250000    0.12500000   1 t-inv T
  0.250000 -0.250000 -0.250000    0.12500000   2 t-inv T
  0.250000  0.250000 -0.250000    0.12500000   3 t-inv T
 -0.250000  0.250000 -0.250000    0.12500000   4 t-inv T


--------------------------------------------------------------------------------------------------------




 Dimension of arrays:
   k-points           NKPTS =      4   k-points in BZ     NKDIM =      4   number of bands    NBANDS=    476
   number of dos      NEDOS =    301   number of ions     NIONS =    108
   non local maximal  LDIM  =      6   non local SUM 2l+1 LMDIM =     18
   total plane-waves  NPLWV = 150528
   max r-space proj   IRMAX =   1791   max aug-charges    IRDMAX=   4900
   dimension x,y,z NGX =    56 NGY =   56 NGZ =   48
   dimension x,y,z NGXF=   112 NGYF=  112 NGZF=   96
   support grid    NGXF=   112 NGYF=  112 NGZF=   96
   ions per type =              36  72
   NGX,Y,Z   is equivalent  to a cutoff of   8.18,  8.18,  8.31 a.u.
   NGXF,Y,Z  is equivalent  to a cutoff of  16.37, 16.37, 16.62 a.u.

 SYSTEM =  unknown system
 POSCAR =  Ti4 O8

 Startparameter for this run:
   NWRITE =      2    write-flag & timer
   PREC   = normal    normal or accurate (medium, high low for compatibility)
   ISTART =      0    job   : 0-new  1-cont  2-samecut
   ICHARG =      2    charge: 1-file 2-atom 10-const
   ISPIN  =      1    spin polarized calculation?
   LNONCOLLINEAR =      F non collinear calculations
   LSORBIT =      F    spin-orbit coupling
   INIWAV =      1    electr: 0-lowe 1-rand  2-diag
   LASPH  =      F    aspherical Exc in radial PAW
 Electronic Relaxation 1
   ENCUT  =  400.0 eV  29.40 Ry    5.42 a.u.  18.55 18.55 15.66*2*pi/ulx,y,z
   ENINI  =  400.0     initial cutoff
   ENAUG  =  605.4 eV  augmentation charge cutoff
   NELM   =     80;   NELMIN=  4; NELMDL= -5     # of ELM steps
   EDIFF  = 0.1E-06   stopping-criterion for ELM
   LREAL  =      T    real-space projection
   NLSPLINE    = F    spline interpolate recip. space projectors
   LCOMPAT=      F    compatible to vasp.4.4
   GGA_COMPAT  = T    GGA compatible to vasp.4.4-vasp.4.6
   LMAXPAW     = -100 max onsite density
   LMAXMIX     =    2 max onsite mixed and CHGCAR
   VOSKOWN=      0    Vosko Wilk Nusair interpolation
   ROPT   =   -0.00050  -0.00050
 Ionic relaxation
   EDIFFG = 0.1E-05   stopping-criterion for IOM
   NSW    =      0    number of steps for IOM
   NBLOCK =      1;   KBLOCK =      1    inner block; outer block
   IBRION =     -1    ionic relax: 0-MD 1-quasi-New 2-CG
   NFREE  =      0    steps in history (QN), initial steepest desc. (CG)
   ISIF   =      2    stress and relaxation
   IWAVPR =     10    prediction:  0-non 1-charg 2-wave 3-comb
   ISYM   =      0    0-nonsym 1-usesym 2-fastsym
   LCORR  =      T    Harris-Foulkes like correction to forces

   POTIM  = 0.5000    time-step for ionic-motion
   TEIN   =    0.0    initial temperature
   TEBEG  =    0.0;   TEEND  =   0.0 temperature during run
   SMASS  =  -3.00    Nose mass-parameter (am)
   estimated Nose-frequenzy (Omega)   =  0.10E-29 period in steps = 0.13E+47 mass=  -0.296E-26a.u.
   SCALEE = 1.0000    scale energy and forces
   NPACO  =    256;   APACO  = 10.0  distance and # of slots for P.C.
   PSTRESS=    0.0 pullay stress

  Mass of Ions in am
   POMASS =  47.88 16.00
  Ionic Valenz
   ZVAL   =  10.00  6.00
  Atomic Wigner-Seitz radii
   RWIGS  =  -1.00 -1.00
  virtual crystal weights
   VCA    =   1.00  1.00
   NELECT =     792.0000    total number of electrons
   NUPDOWN=      -1.0000    fix difference up-down

 DOS related values:
   EMIN   =  10.00;   EMAX   =-10.00  energy-range for DOS
   EFERMI =   0.00
   ISMEAR =     0;   SIGMA  =   0.10  broadening in eV -4-tet -1-fermi 0-gaus

 Electronic relaxation 2 (details)
   IALGO  =     38    algorithm
   LDIAG  =      T    sub-space diagonalisation (order eigenvalues)
   LSUBROT=      F    optimize rotation matrix (better conditioning)
   TURBO    =      0    0=normal 1=particle mesh
   IRESTART =      0    0=no restart 2=restart with 2 vectors
   NREBOOT  =      0    no. of reboots
   NMIN     =      0    reboot dimension
   EREF     =   0.00    reference energy to select bands
   IMIX   =      4    mixing-type and parameters
     AMIX     =   0.40;   BMIX     =  1.00
     AMIX_MAG =   1.60;   BMIX_MAG =  1.00
     AMIN     =   0.10
     WC   =   100.;   INIMIX=   1;  MIXPRE=   1;  MAXMIX= -45

 Intra band minimization:
   WEIMIN = 0.0000     energy-eigenvalue tresh-hold
   EBREAK =  0.53E-10  absolut break condition
   DEPER  =   0.30     relativ break condition

   TIME   =   0.40     timestep for ELM

  volume/ion in A,a.u.               =      11.51        77.68
  Fermi-wavevector in a.u.,A,eV,Ry     =   1.408670  2.662001 26.998745  1.984352
  Thomas-Fermi vector in A             =   2.530804

 Write flags
   LWAVE        =      F    write WAVECAR
   LDOWNSAMPLE  =      F    k-point downsampling of WAVECAR
   LCHARG       =      F    write CHGCAR
   LVTOT        =      F    write LOCPOT, total local potential
   LVHAR        =      F    write LOCPOT, Hartree potential only
   LELF         =      F    write electronic localiz. function (ELF)
   LORBIT       =      0    0 simple, 1 ext, 2 COOP (PROOUT), +10 PAW based schemes


 Dipole corrections
   LMONO  =      F    monopole corrections only (constant potential shift)
   LDIPOL =      F    correct potential (dipole corrections)
   IDIPOL =      0    1-x, 2-y, 3-z, 4-all directions
   EPSILON=  1.0000000 bulk dielectric constant

 Exchange correlation treatment:
   GGA     =    --    GGA type
   LEXCH   =     8    internal setting for exchange type
   LIBXC   =     F    Libxc
   VOSKOWN =     0    Vosko Wilk Nusair interpolation
   LHFCALC =     F    Hartree Fock is set to
   LHFONE  =     F    Hartree Fock one center treatment
   AEXX    =    0.0000 exact exchange contribution

 Linear response parameters
   LEPSILON=     T    determine dielectric tensor
   LRPA    =     F    only Hartree local field effects (RPA)
   LNABLA  =     F    use nabla operator in PAW spheres
   LVEL    =     F    velocity operator in full k-point grid
   CSHIFT  =0.1000    complex shift for real part using Kramers Kronig
   OMEGAMAX=  -1.0    maximum frequency
   DEG_THRESHOLD= 0.2000000E-02 threshold for treating states as degnerate
   RTIME   =   -0.100 relaxation time in fs
  (WPLASMAI=    0.000 imaginary part of plasma frequency in eV, 0.658/RTIME)
   DFIELD  = 0.0000000 0.0000000 0.0000000 field for delta impulse in time

  Optional k-point grid parameters
   LKPOINTS_OPT  =     F    use optional k-point grid
   KPOINTS_OPT_MODE=     1    mode for optional k-point grid

 Orbital magnetization related:
   ORBITALMAG=     F  switch on orbital magnetization
   LCHIMAG   =     F  perturbation theory with respect to B field
   DQ        =  0.001000  dq finite difference perturbation B field
   LLRAUG    =     F  two centre corrections for induced B field

 PEAD related settings:
   LPEAD      =     T    switch on PEAD
   IPEAD      =     4    finite difference order for dpsi/dk
   LCALCPOL   =     F    calculate macroscopic polarization
   LCALCEPS   =     F    calculate dielectric tensor
   EFIELD_PEAD=    0.0000    0.0000    0.0000
   SKIP_EDOTP =     F
   LRPA       =     F
   SKIP_SCF   =     F


--------------------------------------------------------------------------------------------------------


 Static calculation
 charge density and potential will be updated during run
 non-spin polarized calculation
 Variant of blocked Davidson
 Davidson routine will perform the subspace rotation
 perform sub-space diagonalisation
    after iterative eigenvector-optimisation
 modified Broyden-mixing scheme, WC =      100.0
 initial mixing is a Kerker type mixing with AMIX =  0.4000 and BMIX =      1.0000
 Hartree-type preconditioning will be used
 using additional bands           80
 real space projection scheme for non local part
 use partial core corrections
 calculate Harris-corrections to forces
   (improved forces if not selfconsistent)
 use gradient corrections
 use of overlap-Matrix (Vanderbilt PP)
 Gauss-broadening in eV      SIGMA  =   0.10


--------------------------------------------------------------------------------------------------------


  energy-cutoff  :      400.00
  volume of cell :     1243.14
      direct lattice vectors                 reciprocal lattice vectors
    11.376843452  0.000000000  0.000000000     0.087897843  0.000000000  0.000000000
     0.000000000 11.376843452  0.000000000     0.000000000  0.087897843  0.000000000
     0.000000000  0.000000000  9.604574204     0.000000000  0.000000000  0.104117057

  length of vectors
    11.376843452 11.376843452  9.604574204     0.087897843  0.087897843  0.104117057



 k-points in units of 2pi/SCALE and weight: K-Points
   0.02197446  0.02197446  0.02602926       0.250
  -0.02197446  0.02197446  0.02602926       0.250
  -0.02197446 -0.02197446  0.02602926       0.250
   0.02197446 -0.02197446  0.02602926       0.250

 k-points in reciprocal lattice and weights: K-Points
   0.25000000  0.25000000  0.25000000       0.250
  -0.25000000  0.25000000  0.25000000       0.250
  -0.25000000 -0.25000000  0.25000000       0.250
   0.25000000 -0.25000000  0.25000000       0.250

 position of ions in fractional coordinates (direct lattice)
   0.16666667  0.16666667  0.50000000
   0.16666667  0.50000000  0.50000000
   0.16666667  0.83333331  0.50000000
   0.50000000  0.16666667  0.50000000
   0.50000000  0.50000000  0.50000000
   0.50000000  0.83333331  0.50000000
   0.83333331  0.16666667  0.50000000
   0.83333331  0.50000000  0.50000000
   0.83333331  0.83333331  0.50000000
   0.16666667  0.00000000  0.75000000
   0.16666667  0.33333334  0.75000000
   0.16666667  0.66666669  0.75000000
   0.50000000  0.00000000  0.75000000
   0.50000000  0.33333334  0.75000000
   0.50000000  0.66666669  0.75000000
   0.83333331  0.00000000  0.75000000
   0.83333331  0.33333334  0.75000000
   0.83333331  0.66666669  0.75000000
   0.00000000  0.00000000  0.00000000
   0.00000000  0.33333334  0.00000000
   0.00000000  0.66666669  0.00000000
   0.33333334  0.00000000  0.00000000
   0.33333334  0.33333334  0.00000000
   0.33333334  0.66666669  0.00000000
   0.66666669  0.00000000  0.00000000
   0.66666669  0.33333334  0.00000000
   0.66666669  0.66666669  0.00000000
   0.00000000  0.16666667  0.25000000
   0.00000000  0.50000000  0.25000000
   0.00000000  0.83333331  0.25000000
   0.33333334  0.16666667  0.25000000
   0.33333334  0.50000000  0.25000000
   0.33333334  0.83333331  0.25000000
   0.66666669  0.16666667  0.25000000
   0.66666669  0.50000000  0.25000000
   0.66666669  0.83333331  0.25000000
   0.00000000  0.16666667  0.45789859
   0.00000000  0.50000000  0.45789859
   0.00000000  0.83333331  0.45789859
   0.33333334  0.16666667  0.45789859
   0.33333334  0.50000000  0.45789859
   0.33333334  0.83333331  0.45789859
   0.66666669  0.16666667  0.46831029
   0.66666669  0.50000000  0.45789859
   0.66666669  0.83333331  0.45789859
   0.16666667  0.16666667  0.70789862
   0.16666667  0.50000000  0.70789862
   0.16666667  0.83333331  0.70789862
   0.50000000  0.16666667  0.70789862
   0.50000000  0.50000000  0.70789862
   0.50000000  0.83333331  0.70789862
   0.83333331  0.16666667  0.70789862
   0.83333331  0.50000000  0.70789862
   0.83333331  0.83333331  0.70789862
   0.16666667  0.00000000  0.54210138
   0.16666667  0.33333334  0.54210138
   0.16666667  0.66666669  0.54210138
   0.50000000  0.00000000  0.54210138
   0.50000000  0.33333334  0.54210138
   0.50000000  0.66666669  0.54210138
   0.83333331  0.00000000  0.54210138
   0.83333331  0.33333334  0.54210138
   0.83333331  0.66666669  0.54210138
   0.00000000  0.00000000  0.79210138
   0.00000000  0.33333334  0.79210138
   0.00000000  0.66666669  0.79210138
   0.33333334  0.00000000  0.79210138
   0.33333334  0.33333334  0.79210138
   0.33333334  0.66666669  0.79210138
   0.66666669  0.00000000  0.79210138
   0.66666669  0.33333334  0.79210138
   0.66666669  0.66666669  0.79210138
   0.16666667  0.00000000  0.95789862
   0.16666667  0.33333334  0.95789862
   0.16666667  0.66666669  0.95789862
   0.50000000  0.00000000  0.95789862
   0.50000000  0.33333334  0.95789862
   0.50000000  0.66666669  0.95789862
   0.83333331  0.00000000  0.95789862
   0.83333331  0.33333334  0.95789862
   0.83333331  0.66666669  0.95789862
   0.00000000  0.00000000  0.20789860
   0.00000000  0.33333334  0.20789860
   0.00000000  0.66666669  0.20789860
   0.33333334  0.00000000  0.20789860
   0.33333334  0.33333334  0.20789860
   0.33333334  0.66666669  0.20789860
   0.66666669  0.00000000  0.20789860
   0.66666669  0.33333334  0.20789860
   0.66666669  0.66666669  0.20789860
   0.00000000  0.16666667  0.04210141
   0.00000000  0.50000000  0.04210141
   0.00000000  0.83333331  0.04210141
   0.33333334  0.16666667  0.04210141
   0.33333334  0.50000000  0.04210141
   0.33333334  0.83333331  0.04210141
   0.66666669  0.16666667  0.04210141
   0.66666669  0.50000000  0.04210141
   0.66666669  0.83333331  0.04210141
   0.16666667  0.16666667  0.29210141
   0.16666667  0.50000000  0.29210141
   0.16666667  0.83333331  0.29210141
   0.50000000  0.16666667  0.29210141
   0.50000000  0.50000000  0.29210141
   0.50000000  0.83333331  0.29210141
   0.83333331  0.16666667  0.29210141
   0.83333331  0.50000000  0.29210141
   0.83333331  0.83333331  0.29210141

 position of ions in cartesian coordinates  (Angst):
   1.89614063  1.89614063  4.80228710
   1.89614063  5.68842173  4.80228710
   1.89614063  9.48070265  4.80228710
   5.68842173  1.89614063  4.80228710
   5.68842173  5.68842173  4.80228710
   5.68842173  9.48070265  4.80228710
   9.48070265  1.89614063  4.80228710
   9.48070265  5.68842173  4.80228710
   9.48070265  9.48070265  4.80228710
   1.89614063  0.00000000  7.20343065
   1.89614063  3.79228126  7.20343065
   1.89614063  7.58456253  7.20343065
   5.68842173  0.00000000  7.20343065
   5.68842173  3.79228126  7.20343065
   5.68842173  7.58456253  7.20343065
   9.48070265  0.00000000  7.20343065
   9.48070265  3.79228126  7.20343065
   9.48070265  7.58456253  7.20343065
   0.00000000  0.00000000  0.00000000
   0.00000000  3.79228126  0.00000000
   0.00000000  7.58456253  0.00000000
   3.79228126  0.00000000  0.00000000
   3.79228126  3.79228126  0.00000000
   3.79228126  7.58456253  0.00000000
   7.58456253  0.00000000  0.00000000
   7.58456253  3.79228126  0.00000000
   7.58456253  7.58456253  0.00000000
   0.00000000  1.89614063  2.40114355
   0.00000000  5.68842173  2.40114355
   0.00000000  9.48070265  2.40114355
   3.79228126  1.89614063  2.40114355
   3.79228126  5.68842173  2.40114355
   3.79228126  9.48070265  2.40114355
   7.58456253  1.89614063  2.40114355
   7.58456253  5.68842173  2.40114355
   7.58456253  9.48070265  2.40114355
   0.00000000  1.89614063  4.39792096
   0.00000000  5.68842173  4.39792096
   0.00000000  9.48070265  4.39792096
   3.79228126  1.89614063  4.39792096
   3.79228126  5.68842173  4.39792096
   3.79228126  9.48070265  4.39792096
   7.58456253  1.89614063  4.49792096
   7.58456253  5.68842173  4.39792096
   7.58456253  9.48070265  4.39792096
   1.89614063  1.89614063  6.79906479
   1.89614063  5.68842173  6.79906479
   1.89614063  9.48070265  6.79906479
   5.68842173  1.89614063  6.79906479
   5.68842173  5.68842173  6.79906479
   5.68842173  9.48070265  6.79906479
   9.48070265  1.89614063  6.79906479
   9.48070265  5.68842173  6.79906479
   9.48070265  9.48070265  6.79906479
   1.89614063  0.00000000  5.20665296
   1.89614063  3.79228126  5.20665296
   1.89614063  7.58456253  5.20665296
   5.68842173  0.00000000  5.20665296
   5.68842173  3.79228126  5.20665296
   5.68842173  7.58456253  5.20665296
   9.48070265  0.00000000  5.20665296
   9.48070265  3.79228126  5.20665296
   9.48070265  7.58456253  5.20665296
   0.00000000  0.00000000  7.60779651
   0.00000000  3.79228126  7.60779651
   0.00000000  7.58456253  7.60779651
   3.79228126  0.00000000  7.60779651
   3.79228126  3.79228126  7.60779651
   3.79228126  7.58456253  7.60779651
   7.58456253  0.00000000  7.60779651
   7.58456253  3.79228126  7.60779651
   7.58456253  7.58456253  7.60779651
   1.89614063  0.00000000  9.20020834
   1.89614063  3.79228126  9.20020834
   1.89614063  7.58456253  9.20020834
   5.68842173  0.00000000  9.20020834
   5.68842173  3.79228126  9.20020834
   5.68842173  7.58456253  9.20020834
   9.48070265  0.00000000  9.20020834
   9.48070265  3.79228126  9.20020834
   9.48070265  7.58456253  9.20020834
   0.00000000  0.00000000  1.99677755
   0.00000000  3.79228126  1.99677755
   0.00000000  7.58456253  1.99677755
   3.79228126  0.00000000  1.99677755
   3.79228126  3.79228126  1.99677755
   3.79228126  7.58456253  1.99677755
   7.58456253  0.00000000  1.99677755
   7.58456253  3.79228126  1.99677755
   7.58456253  7.58456253  1.99677755
   0.00000000  1.89614063  0.40436607
   0.00000000  5.68842173  0.40436607
   0.00000000  9.48070265  0.40436607
   3.79228126  1.89614063  0.40436607
   3.79228126  5.68842173  0.40436607
   3.79228126  9.48070265  0.40436607
   7.58456253  1.89614063  0.40436607
   7.58456253  5.68842173  0.40436607
   7.58456253  9.48070265  0.40436607
   1.89614063  1.89614063  2.80550970
   1.89614063  5.68842173  2.80550970
   1.89614063  9.48070265  2.80550970
   5.68842173  1.89614063  2.80550970
   5.68842173  5.68842173  2.80550970
   5.68842173  9.48070265  2.80550970
   9.48070265  1.89614063  2.80550970
   9.48070265  5.68842173  2.80550970
   9.48070265  9.48070265  2.80550970



--------------------------------------------------------------------------------------------------------


 k-point   1 :   0.2500 0.2500 0.2500  plane waves:   22590
 k-point   2 :  -0.2500 0.2500 0.2500  plane waves:   22590
 k-point   3 :  -0.2500-0.2500 0.2500  plane waves:   22590
 k-point   4 :   0.2500-0.2500 0.2500  plane waves:   22590

 maximum and minimum number of plane-waves per node :     22590    22590

 maximum number of plane-waves:     22590
 maximum index in each direction:
   IXMAX=   18   IYMAX=   18   IZMAX=   15
   IXMIN=  -18   IYMIN=  -18   IZMIN=  -15


 serial   3D FFT for wavefunctions
 parallel 3D FFT for charge:
    minimum data exchange during FFTs selected (reduces bandwidth)


 total amount of memory used by VASP MPI-rank0   266725. kBytes
=======================================================================

   base      :      30000. kBytes
   nonlr-proj:      19556. kBytes
   fftplans  :      10927. kBytes
   grid      :      23181. kBytes
   one-center:       1679. kBytes
   wavefun   :     181382. kBytes

     INWAV:  cpu time      0.0000: real time      0.0005
 Broyden mixing: mesh for mixing (old mesh)
   NGX = 37   NGY = 37   NGZ = 31
  (NGX  =112   NGY  =112   NGZ  = 96)
  gives a total of  42439 points

 initial charge density was supplied:
 charge density of overlapping atoms calculated
 number of electron     792.0000000 magnetization
 keeping initial charge density in first step


--------------------------------------------------------------------------------------------------------


 Maximum index for non-local projection operator         1743
 Maximum index for augmentation-charges         1189 (set IRDMAX)


--------------------------------------------------------------------------------------------------------


 First call to EWALD:  gamma=   0.165
 Maximum number of real-space cells 3x 3x 3
 Maximum number of reciprocal cells 3x 3x 3

    FEWALD:  cpu time      0.2122: real time      0.2135


--------------------------------------- Iteration      1(   1)  ---------------------------------------


    POTLOK:  cpu time      0.1734: real time      0.1752
    SETDIJ:  cpu time      0.0638: real time      0.0644
     EDDAV:  cpu time     16.4657: real time     16.5851
       DOS:  cpu time      0.0035: real time      0.0036
    --------------------------------------------
      LOOP:  cpu time     16.7065: real time     16.8283

 eigenvalue-minimisations  :  3824
 total energy-change (2. order) : 0.1155890E+05  (-0.3305504E+05)
 number of electron     792.0000000 magnetization
 augmentation part      792.0000000 magnetization

 Free energy of the ion-electron system (eV)
  ---------------------------------------------------
  alpha Z        PSCENC =      3563.47650690
  Ewald energy   TEWEN  =    -48597.60548469
  -Hartree energ DENC   =    -18833.23923324
  -exchange      EXHF   =         0.00000000
  -V(xc)+E(xc)   XCENC  =      3286.79464271
  PAW double counting   =     54431.09303398   -54537.79254336
  entropy T*S    EENTRO =        -0.14171677
  eigenvalues    EBANDS =      3589.91574134
  atomic energy  EATOM  =     68656.39924158
  Solvation  Ediel_sol  =         0.00000000
  ---------------------------------------------------
  free energy    TOTEN  =     11558.90018844 eV

  energy without entropy =    11559.04190522  energy(sigma->0) =    11558.97104683


--------------------------------------------------------------------------------------------------------




--------------------------------------- Iteration      1(   2)  ---------------------------------------


     EDDAV:  cpu time     17.4976: real time     17.6254
       DOS:  cpu time      0.0009: real time      0.0009
    --------------------------------------------
      LOOP:  cpu time     17.4985: real time     17.6263

 eigenvalue-minimisations  :  3808
 total energy-change (2. order) :-0.9986324E+04  (-0.9555963E+04)
 number of electron     792.0000000 magnetization
 augmentation part      792.0000000 magnetization

 Free energy of the ion-electron system (eV)
  ---------------------------------------------------
  alpha Z        PSCENC =      3563.47650690
  Ewald energy   TEWEN  =    -48597.60548469
  -Hartree energ DENC   =    -18833.23923324
  -exchange      EXHF   =         0.00000000
  -V(xc)+E(xc)   XCENC  =      3286.79464271
  PAW double counting   =     54431.09303398   -54537.79254336
  entropy T*S    EENTRO =        -0.28831028
  eigenvalues    EBANDS =     -6396.26134345
  atomic energy  EATOM  =     68656.39924158
  Solvation  Ediel_sol  =         0.00000000
  ---------------------------------------------------
  free energy    TOTEN  =      1572.57651015 eV

  energy without entropy =     1572.86482044  energy(sigma->0) =     1572.72066530


--------------------------------------------------------------------------------------------------------




--------------------------------------- Iteration      1(   3)  ---------------------------------------


     EDDAV:  cpu time     19.7478: real time     19.8784
       DOS:  cpu time      0.0006: real time      0.0006
    --------------------------------------------
      LOOP:  cpu time     19.7485: real time     19.8790

 eigenvalue-minimisations  :  4416
 total energy-change (2. order) :-0.2640827E+04  (-0.2568995E+04)
 number of electron     792.0000000 magnetization
 augmentation part      792.0000000 magnetization

 Free energy of the ion-electron system (eV)
  ---------------------------------------------------
  alpha Z        PSCENC =      3563.47650690
  Ewald energy   TEWEN  =    -48597.60548469
  -Hartree energ DENC   =    -18833.23923324
  -exchange      EXHF   =         0.00000000
  -V(xc)+E(xc)   XCENC  =      3286.79464271
  PAW double counting   =     54431.09303398   -54537.79254336
  entropy T*S    EENTRO =        -0.00000000
  eigenvalues    EBANDS =     -9037.37672571
  atomic energy  EATOM  =     68656.39924158
  Solvation  Ediel_sol  =         0.00000000
  ---------------------------------------------------
  free energy    TOTEN  =     -1068.25056183 eV

  energy without entropy =    -1068.25056183  energy(sigma->0) =    -1068.25056183


--------------------------------------------------------------------------------------------------------




--------------------------------------- Iteration      1(   4)  ---------------------------------------


     EDDAV:  cpu time     21.8949: real time     22.0440
       DOS:  cpu time      0.0007: real time      0.0007
    --------------------------------------------
      LOOP:  cpu time     21.8955: real time     22.0446

 eigenvalue-minimisations  :  5096
 total energy-change (2. order) :-0.2051511E+03  (-0.2040414E+03)
 number of electron     792.0000000 magnetization
 augmentation part      792.0000000 magnetization

 Free energy of the ion-electron system (eV)
  ---------------------------------------------------
  alpha Z        PSCENC =      3563.47650690
  Ewald energy   TEWEN  =    -48597.60548469
  -Hartree energ DENC   =    -18833.23923324
  -exchange      EXHF   =         0.00000000
  -V(xc)+E(xc)   XCENC  =      3286.79464271
  PAW double counting   =     54431.09303398   -54537.79254336
  entropy T*S    EENTRO =        -0.00000000
  eigenvalues    EBANDS =     -9242.52784351
  atomic energy  EATOM  =     68656.39924158
  Solvation  Ediel_sol  =         0.00000000
  ---------------------------------------------------
  free energy    TOTEN  =     -1273.40167962 eV

  energy without entropy =    -1273.40167962  energy(sigma->0) =    -1273.40167962


--------------------------------------------------------------------------------------------------------




--------------------------------------- Iteration      1(   5)  ---------------------------------------


     EDDAV:  cpu time     21.6442: real time     21.7915
       DOS:  cpu time      0.0007: real time      0.0007
    CHARGE:  cpu time      0.2490: real time      0.2529
    MIXING:  cpu time      0.0184: real time      0.0186
    --------------------------------------------
      LOOP:  cpu time     21.9123: real time     22.0638

 eigenvalue-minimisations  :  4960
 total energy-change (2. order) :-0.5304313E+01  (-0.5293073E+01)
 number of electron     792.0003053 magnetization
 augmentation part      202.2284403 magnetization

 Broyden mixing:
  rms(total) = 0.17231E+02    rms(broyden)= 0.17230E+02
  rms(prec ) = 0.19170E+02
  weight for this iteration     100.00

 Free energy of the ion-electron system (eV)
  ---------------------------------------------------
  alpha Z        PSCENC =      3563.47650690
  Ewald energy   TEWEN  =    -48597.60548469
  -Hartree energ DENC   =    -18833.23923324
  -exchange      EXHF   =         0.00000000
  -V(xc)+E(xc)   XCENC  =      3286.79464271
  PAW double counting   =     54431.09303398   -54537.79254336
  entropy T*S    EENTRO =        -0.00000000
  eigenvalues    EBANDS =     -9247.83215612
  atomic energy  EATOM  =     68656.39924158
  Solvation  Ediel_sol  =         0.00000000
  ---------------------------------------------------
  free energy    TOTEN  =     -1278.70599224 eV

  energy without entropy =    -1278.70599224  energy(sigma->0) =    -1278.70599224


--------------------------------------------------------------------------------------------------------




--------------------------------------- Iteration      1(   6)  ---------------------------------------


    POTLOK:  cpu time      0.1673: real time      0.1689
    SETDIJ:  cpu time      0.0719: real time      0.0723
     EDDAV:  cpu time     21.3374: real time     21.4811
       DOS:  cpu time      0.0044: real time      0.0044
    CHARGE:  cpu time      0.2403: real time      0.2417
    MIXING:  cpu time      0.0128: real time      0.0129
    --------------------------------------------
      LOOP:  cpu time     21.8342: real time     21.9815

 eigenvalue-minimisations  :  4984
 total energy-change (2. order) : 0.3022145E+03  (-0.1977131E+03)
 number of electron     792.0002460 magnetization
 augmentation part      214.1161079 magnetization

 Broyden mixing:
  rms(total) = 0.52974E+01    rms(broyden)= 0.52924E+01
  rms(prec ) = 0.58274E+01
  weight for this iteration     100.00

 eigenvalues of (default mixing * dielectric matrix)
  average eigenvalue GAMMA=   0.9639
  0.9639

 Free energy of the ion-electron system (eV)
  ---------------------------------------------------
  alpha Z        PSCENC =      3563.47650690
  Ewald energy   TEWEN  =    -48597.60548469
  -Hartree energ DENC   =    -19057.57874930
  -exchange      EXHF   =         0.00000000
  -V(xc)+E(xc)   XCENC  =      3337.79941985
  PAW double counting   =     68235.80435622   -68468.06049387
  entropy T*S    EENTRO =        -0.00000000
  eigenvalues    EBANDS =     -8646.72627536
  atomic energy  EATOM  =     68656.39924158
  Solvation  Ediel_sol  =         0.00000000
  ---------------------------------------------------
  free energy    TOTEN  =      -976.49147867 eV

  energy without entropy =     -976.49147867  energy(sigma->0) =     -976.49147867


--------------------------------------------------------------------------------------------------------




--------------------------------------- Iteration      1(   7)  ---------------------------------------


    POTLOK:  cpu time      0.1546: real time      0.1559
    SETDIJ:  cpu time      0.0427: real time      0.0430
     EDDAV:  cpu time     23.1523: real time     23.3076
       DOS:  cpu time      0.0035: real time      0.0035
    CHARGE:  cpu time      0.2394: real time      0.2407
    MIXING:  cpu time      0.0184: real time      0.0185
    --------------------------------------------
      LOOP:  cpu time     23.6108: real time     23.7691

 eigenvalue-minimisations  :  5328
 total energy-change (2. order) : 0.4435194E+01  (-0.2852920E+02)
 number of electron     792.0002650 magnetization
 augmentation part      207.3361602 magnetization

 Broyden mixing:
  rms(total) = 0.45936E+01    rms(broyden)= 0.45933E+01
  rms(prec ) = 0.47863E+01
  weight for this iteration     100.00

 eigenvalues of (default mixing * dielectric matrix)
  average eigenvalue GAMMA=   1.8510
  0.7373  2.9647

 Free energy of the ion-electron system (eV)
  ---------------------------------------------------
  alpha Z        PSCENC =      3563.47650690
  Ewald energy   TEWEN  =    -48597.60548469
  -Hartree energ DENC   =    -18898.95274866
  -exchange      EXHF   =         0.00000000
  -V(xc)+E(xc)   XCENC  =      3318.49397637
  PAW double counting   =     75210.56334840   -75453.80667300
  entropy T*S    EENTRO =        -0.00000000
  eigenvalues    EBANDS =     -8770.62445149
  atomic energy  EATOM  =     68656.39924158
  Solvation  Ediel_sol  =         0.00000000
  ---------------------------------------------------
  free energy    TOTEN  =      -972.05628460 eV

  energy without entropy =     -972.05628460  energy(sigma->0) =     -972.05628460


--------------------------------------------------------------------------------------------------------




--------------------------------------- Iteration      1(   8)  ---------------------------------------


    POTLOK:  cpu time      0.1612: real time      0.1626
    SETDIJ:  cpu time      0.0715: real time      0.0718
     EDDAV:  cpu time     21.8358: real time     21.9824
       DOS:  cpu time      0.0026: real time      0.0026
    CHARGE:  cpu time      0.2382: real time      0.2396
    MIXING:  cpu time      0.0169: real time      0.0170
    --------------------------------------------
      LOOP:  cpu time     22.3262: real time     22.4760

 eigenvalue-minimisations  :  5000
 total energy-change (2. order) :-0.2431974E+00  (-0.1117549E+02)
 number of electron     792.0002584 magnetization
 augmentation part      215.6281704 magnetization

 Broyden mixing:
  rms(total) = 0.33994E+01    rms(broyden)= 0.33992E+01
  rms(prec ) = 0.37027E+01
  weight for this iteration     100.00

 eigenvalues of (default mixing * dielectric matrix)
  average eigenvalue GAMMA=   1.2344
  2.1787  0.9268  0.5976

 Free energy of the ion-electron system (eV)
  ---------------------------------------------------
  alpha Z        PSCENC =      3563.47650690
  Ewald energy   TEWEN  =    -48597.60548469
  -Hartree energ DENC   =    -18520.22885308
  -exchange      EXHF   =         0.00000000
  -V(xc)+E(xc)   XCENC  =      3303.65851522
  PAW double counting   =     93894.52515935   -94210.46504882
  entropy T*S    EENTRO =        -0.00000000
  eigenvalues    EBANDS =     -9062.05951846
  atomic energy  EATOM  =     68656.39924158
  Solvation  Ediel_sol  =         0.00000000
  ---------------------------------------------------
  free energy    TOTEN  =      -972.29948201 eV

  energy without entropy =     -972.29948201  energy(sigma->0) =     -972.29948201


--------------------------------------------------------------------------------------------------------




--------------------------------------- Iteration      1(   9)  ---------------------------------------


    POTLOK:  cpu time      0.1841: real time      0.1864
    SETDIJ:  cpu time      0.0496: real time      0.0499
     EDDAV:  cpu time     21.7273: real time     22.0658
       DOS:  cpu time      0.0047: real time      0.0048
    CHARGE:  cpu time      0.2465: real time      0.2479
    MIXING:  cpu time      0.0166: real time      0.0168
    --------------------------------------------
      LOOP:  cpu time     22.2290: real time     22.5716

 eigenvalue-minimisations  :  5088
 total energy-change (2. order) : 0.5706095E+01  (-0.3528914E+01)
 number of electron     792.0002632 magnetization
 augmentation part      211.4764935 magnetization

 Broyden mixing:
  rms(total) = 0.25586E+00    rms(broyden)= 0.25511E+00
  rms(prec ) = 0.27971E+00
  weight for this iteration     100.00

 eigenvalues of (default mixing * dielectric matrix)
  average eigenvalue GAMMA=   1.2269
  2.1998  1.0427  1.0427  0.6223

 Free energy of the ion-electron system (eV)
  ---------------------------------------------------
  alpha Z        PSCENC =      3563.47650690
  Ewald energy   TEWEN  =    -48597.60548469
  -Hartree energ DENC   =    -18666.59392610
  -exchange      EXHF   =         0.00000000
  -V(xc)+E(xc)   XCENC  =      3308.61895514
  PAW double counting   =     88568.50585859   -88864.94578983
  entropy T*S    EENTRO =        -0.00000000
  eigenvalues    EBANDS =     -8934.44874907
  atomic energy  EATOM  =     68656.39924158
  Solvation  Ediel_sol  =         0.00000000
  ---------------------------------------------------
  free energy    TOTEN  =      -966.59338750 eV

  energy without entropy =     -966.59338750  energy(sigma->0) =     -966.59338750


--------------------------------------------------------------------------------------------------------




--------------------------------------- Iteration      1(  10)  ---------------------------------------


    POTLOK:  cpu time      0.1538: real time      0.1555
    SETDIJ:  cpu time      0.0457: real time      0.0459
     EDDAV:  cpu time     21.9967: real time     22.8406
       DOS:  cpu time      0.0029: real time      0.0030
    CHARGE:  cpu time      0.2357: real time      0.2371
    MIXING:  cpu time      0.0166: real time      0.0167
    --------------------------------------------
      LOOP:  cpu time     22.4514: real time     23.2988

 eigenvalue-minimisations  :  5224
 total energy-change (2. order) :-0.4868522E-01  (-0.8872118E-01)
 number of electron     792.0002623 magnetization
 augmentation part      211.5479576 magnetization

 Broyden mixing:
  rms(total) = 0.22615E+00    rms(broyden)= 0.22611E+00
  rms(prec ) = 0.24896E+00
  weight for this iteration     100.00

 eigenvalues of (default mixing * dielectric matrix)
  average eigenvalue GAMMA=   1.3188
  2.5227  1.8100  1.0326  0.6740  0.5549

 Free energy of the ion-electron system (eV)
  ---------------------------------------------------
  alpha Z        PSCENC =      3563.47650690
  Ewald energy   TEWEN  =    -48597.60548469
  -Hartree energ DENC   =    -18699.78464487
  -exchange      EXHF   =         0.00000000
  -V(xc)+E(xc)   XCENC  =      3311.02509057
  PAW double counting   =     88834.29377197   -89134.05427856
  entropy T*S    EENTRO =        -0.00000000
  eigenvalues    EBANDS =     -8900.39227561
  atomic energy  EATOM  =     68656.39924158
  Solvation  Ediel_sol  =         0.00000000
  ---------------------------------------------------
  free energy    TOTEN  =      -966.64207271 eV

  energy without entropy =     -966.64207271  energy(sigma->0) =     -966.64207271


--------------------------------------------------------------------------------------------------------




--------------------------------------- Iteration      1(  11)  ---------------------------------------


    POTLOK:  cpu time      0.2087: real time      0.2109
    SETDIJ:  cpu time      0.0227: real time      0.0228
     EDDAV:  cpu time     20.5962: real time     21.1222
       DOS:  cpu time      0.0028: real time      0.0028
    CHARGE:  cpu time      0.2381: real time      0.2393
    MIXING:  cpu time      0.0183: real time      0.0184
    --------------------------------------------
      LOOP:  cpu time     21.0867: real time     21.6164

 eigenvalue-minimisations  :  4728
 total energy-change (2. order) :-0.2659187E-01  (-0.1875133E-01)
 number of electron     792.0002619 magnetization
 augmentation part      211.4348090 magnetization

 Broyden mixing:
  rms(total) = 0.16822E+00    rms(broyden)= 0.16821E+00
  rms(prec ) = 0.20342E+00
  weight for this iteration     100.00

 eigenvalues of (default mixing * dielectric matrix)
  average eigenvalue GAMMA=   1.2806
  2.5358  1.8147  1.0710  1.0710  0.6156  0.5757

 Free energy of the ion-electron system (eV)
  ---------------------------------------------------
  alpha Z        PSCENC =      3563.47650690
  Ewald energy   TEWEN  =    -48597.60548469
  -Hartree energ DENC   =    -18731.29445986
  -exchange      EXHF   =         0.00000000
  -V(xc)+E(xc)   XCENC  =      3313.07801390
  PAW double counting   =     89170.00677812   -89472.72685414
  entropy T*S    EENTRO =        -0.00000000
  eigenvalues    EBANDS =     -8868.00240639
  atomic energy  EATOM  =     68656.39924158
  Solvation  Ediel_sol  =         0.00000000
  ---------------------------------------------------
  free energy    TOTEN  =      -966.66866458 eV

  energy without entropy =     -966.66866458  energy(sigma->0) =     -966.66866458


--------------------------------------------------------------------------------------------------------




--------------------------------------- Iteration      1(  12)  ---------------------------------------


    POTLOK:  cpu time      0.1559: real time      0.1576
    SETDIJ:  cpu time      0.0641: real time      0.0644
     EDDAV:  cpu time     22.3099: real time     22.9429
       DOS:  cpu time      0.0032: real time      0.0032
    CHARGE:  cpu time      0.2384: real time      0.2396
    MIXING:  cpu time      0.0194: real time      0.0195
    --------------------------------------------
      LOOP:  cpu time     22.7909: real time     23.4272

 eigenvalue-minimisations  :  5288
 total energy-change (2. order) : 0.3223910E-01  (-0.3357894E-01)
 number of electron     792.0002626 magnetization
 augmentation part      211.1721560 magnetization

 Broyden mixing:
  rms(total) = 0.55869E-01    rms(broyden)= 0.55780E-01
  rms(prec ) = 0.64295E-01
  weight for this iteration     100.00

 eigenvalues of (default mixing * dielectric matrix)
  average eigenvalue GAMMA=   1.2453
  2.5838  1.6287  1.6287  0.9955  0.7199  0.5804  0.5804

 Free energy of the ion-electron system (eV)
  ---------------------------------------------------
  alpha Z        PSCENC =      3563.47650690
  Ewald energy   TEWEN  =    -48597.60548469
  -Hartree energ DENC   =    -18728.33822697
  -exchange      EXHF   =         0.00000000
  -V(xc)+E(xc)   XCENC  =      3312.51546063
  PAW double counting   =     89171.50649128   -89473.27711741
  entropy T*S    EENTRO =        -0.00000000
  eigenvalues    EBANDS =     -8871.31329680
  atomic energy  EATOM  =     68656.39924158
  Solvation  Ediel_sol  =         0.00000000
  ---------------------------------------------------
  free energy    TOTEN  =      -966.63642548 eV

  energy without entropy =     -966.63642548  energy(sigma->0) =     -966.63642548


--------------------------------------------------------------------------------------------------------




--------------------------------------- Iteration      1(  13)  ---------------------------------------


    POTLOK:  cpu time      0.1602: real time      0.1622
    SETDIJ:  cpu time      0.0599: real time      0.0602
     EDDAV:  cpu time     22.0746: real time     22.9136
       DOS:  cpu time      0.0036: real time      0.0036
    CHARGE:  cpu time      0.2285: real time      0.2296
    MIXING:  cpu time      0.0208: real time      0.0209
    --------------------------------------------
      LOOP:  cpu time     22.5476: real time     23.3902

 eigenvalue-minimisations  :  5256
 total energy-change (2. order) : 0.7877645E-03  (-0.1460769E-02)
 number of electron     792.0002625 magnetization
 augmentation part      211.2187924 magnetization

 Broyden mixing:
  rms(total) = 0.24516E-01    rms(broyden)= 0.24509E-01
  rms(prec ) = 0.29668E-01
  weight for this iteration     100.00

 eigenvalues of (default mixing * dielectric matrix)
  average eigenvalue GAMMA=   1.1991
  2.5825  1.7515  1.7515  0.9811  0.6672  0.6672  0.6252  0.5670

 Free energy of the ion-electron system (eV)
  ---------------------------------------------------
  alpha Z        PSCENC =      3563.47650690
  Ewald energy   TEWEN  =    -48597.60548469
  -Hartree energ DENC   =    -18727.72844699
  -exchange      EXHF   =         0.00000000
  -V(xc)+E(xc)   XCENC  =      3312.51159575
  PAW double counting   =     89209.38730243   -89511.12146859
  entropy T*S    EENTRO =        -0.00000000
  eigenvalues    EBANDS =     -8871.95488410
  atomic energy  EATOM  =     68656.39924158
  Solvation  Ediel_sol  =         0.00000000
  ---------------------------------------------------
  free energy    TOTEN  =      -966.63563772 eV

  energy without entropy =     -966.63563772  energy(sigma->0) =     -966.63563772


--------------------------------------------------------------------------------------------------------




--------------------------------------- Iteration      1(  14)  ---------------------------------------


    POTLOK:  cpu time      0.1470: real time      0.1487
    SETDIJ:  cpu time      0.0876: real time      0.0880
     EDDAV:  cpu time     22.3622: real time     22.9918
       DOS:  cpu time      0.0010: real time      0.0010
    CHARGE:  cpu time      0.2294: real time      0.2316
    MIXING:  cpu time      0.0168: real time      0.0169
    --------------------------------------------
      LOOP:  cpu time     22.8441: real time     23.4781

 eigenvalue-minimisations  :  5344
 total energy-change (2. order) : 0.2851147E-03  (-0.1197993E-03)
 number of electron     792.0002625 magnetization
 augmentation part      211.2224984 magnetization

 Broyden mixing:
  rms(total) = 0.15751E-01    rms(broyden)= 0.15750E-01
  rms(prec ) = 0.18860E-01
  weight for this iteration     100.00

 eigenvalues of (default mixing * dielectric matrix)
  average eigenvalue GAMMA=   1.2539
  2.5404  2.0296  2.0296  1.0045  0.9428  0.9428  0.6544  0.5703  0.5703

 Free energy of the ion-electron system (eV)
  ---------------------------------------------------
  alpha Z        PSCENC =      3563.47650690
  Ewald energy   TEWEN  =    -48597.60548469
  -Hartree energ DENC   =    -18728.84687623
  -exchange      EXHF   =         0.00000000
  -V(xc)+E(xc)   XCENC  =      3312.58258270
  PAW double counting   =     89196.46124621   -89498.10794014
  entropy T*S    EENTRO =        -0.00000000
  eigenvalues    EBANDS =     -8870.99462892
  atomic energy  EATOM  =     68656.39924158
  Solvation  Ediel_sol  =         0.00000000
  ---------------------------------------------------
  free energy    TOTEN  =      -966.63535260 eV

  energy without entropy =     -966.63535260  energy(sigma->0) =     -966.63535260


--------------------------------------------------------------------------------------------------------




--------------------------------------- Iteration      1(  15)  ---------------------------------------


    POTLOK:  cpu time      0.1494: real time      0.1508
    SETDIJ:  cpu time      0.0495: real time      0.0497
     EDDAV:  cpu time     22.1614: real time     22.7131
       DOS:  cpu time      0.0006: real time      0.0006
    CHARGE:  cpu time      0.2234: real time      0.3636
    MIXING:  cpu time      0.0203: real time      0.0204
    --------------------------------------------
      LOOP:  cpu time     22.6045: real time     23.2982

 eigenvalue-minimisations  :  5216
 total energy-change (2. order) :-0.7586292E-05  (-0.1147586E-03)
 number of electron     792.0002624 magnetization
 augmentation part      211.2267827 magnetization

 Broyden mixing:
  rms(total) = 0.73314E-02    rms(broyden)= 0.73268E-02
  rms(prec ) = 0.89821E-02
  weight for this iteration     100.00

 eigenvalues of (default mixing * dielectric matrix)
  average eigenvalue GAMMA=   1.2392
  2.7307  2.3894  2.0201  0.9396  0.9396  0.8110  0.8110  0.6116  0.5695  0.5695

 Free energy of the ion-electron system (eV)
  ---------------------------------------------------
  alpha Z        PSCENC =      3563.47650690
  Ewald energy   TEWEN  =    -48597.60548469
  -Hartree energ DENC   =    -18730.27603436
  -exchange      EXHF   =         0.00000000
  -V(xc)+E(xc)   XCENC  =      3312.66332116
  PAW double counting   =     89176.43884013   -89477.90750129
  entropy T*S    EENTRO =        -0.00000000
  eigenvalues    EBANDS =     -8869.82424960
  atomic energy  EATOM  =     68656.39924158
  Solvation  Ediel_sol  =         0.00000000
  ---------------------------------------------------
  free energy    TOTEN  =      -966.63536019 eV

  energy without entropy =     -966.63536019  energy(sigma->0) =     -966.63536019


--------------------------------------------------------------------------------------------------------




--------------------------------------- Iteration      1(  16)  ---------------------------------------


    POTLOK:  cpu time      0.1591: real time      0.1606
    SETDIJ:  cpu time      0.0463: real time      0.0466
     EDDAV:  cpu time     22.2033: real time     22.9342
       DOS:  cpu time      0.0007: real time      0.0007
    CHARGE:  cpu time      0.2312: real time      0.2324
    MIXING:  cpu time      0.0173: real time      0.0174
    --------------------------------------------
      LOOP:  cpu time     22.6580: real time     23.3918

 eigenvalue-minimisations  :  5240
 total energy-change (2. order) : 0.2653638E-04  (-0.7450949E-04)
 number of electron     792.0002624 magnetization
 augmentation part      211.2388990 magnetization

 Broyden mixing:
  rms(total) = 0.51051E-02    rms(broyden)= 0.51017E-02
  rms(prec ) = 0.58743E-02
  weight for this iteration     100.00

 eigenvalues of (default mixing * dielectric matrix)
  average eigenvalue GAMMA=   1.2139
  2.8166  2.4448  1.9100  1.0053  1.0053  0.8330  0.8330  0.7572  0.6061  0.6061
  0.5353

 Free energy of the ion-electron system (eV)
  ---------------------------------------------------
  alpha Z        PSCENC =      3563.47650690
  Ewald energy   TEWEN  =    -48597.60548469
  -Hartree energ DENC   =    -18730.85826413
  -exchange      EXHF   =         0.00000000
  -V(xc)+E(xc)   XCENC  =      3312.70859053
  PAW double counting   =     89176.48652932   -89477.93335250
  entropy T*S    EENTRO =        -0.00000000
  eigenvalues    EBANDS =     -8869.30910065
  atomic energy  EATOM  =     68656.39924158
  Solvation  Ediel_sol  =         0.00000000
  ---------------------------------------------------
  free energy    TOTEN  =      -966.63533365 eV

  energy without entropy =     -966.63533365  energy(sigma->0) =     -966.63533365


--------------------------------------------------------------------------------------------------------




--------------------------------------- Iteration      1(  17)  ---------------------------------------


    POTLOK:  cpu time      0.1481: real time      0.1494
    SETDIJ:  cpu time      0.0540: real time      0.0543
     EDDAV:  cpu time     22.5417: real time     23.2217
       DOS:  cpu time      0.0011: real time      0.0011
    CHARGE:  cpu time      0.2370: real time      0.2387
    MIXING:  cpu time      0.0215: real time      0.0216
    --------------------------------------------
      LOOP:  cpu time     23.0034: real time     23.6868

 eigenvalue-minimisations  :  5312
 total energy-change (2. order) : 0.1480352E-05  (-0.1532841E-04)
 number of electron     792.0002624 magnetization
 augmentation part      211.2365108 magnetization

 Broyden mixing:
  rms(total) = 0.32209E-02    rms(broyden)= 0.32193E-02
  rms(prec ) = 0.39149E-02
  weight for this iteration     100.00

 eigenvalues of (default mixing * dielectric matrix)
  average eigenvalue GAMMA=   1.1707
  2.8851  2.3980  1.8983  1.0671  1.0671  0.8931  0.8931  0.6079  0.6079  0.6397
  0.5453  0.5453

 Free energy of the ion-electron system (eV)
  ---------------------------------------------------
  alpha Z        PSCENC =      3563.47650690
  Ewald energy   TEWEN  =    -48597.60548469
  -Hartree energ DENC   =    -18731.11504846
  -exchange      EXHF   =         0.00000000
  -V(xc)+E(xc)   XCENC  =      3312.72202947
  PAW double counting   =     89173.74700287   -89475.19912125
  entropy T*S    EENTRO =        -0.00000000
  eigenvalues    EBANDS =     -8869.06045858
  atomic energy  EATOM  =     68656.39924158
  Solvation  Ediel_sol  =         0.00000000
  ---------------------------------------------------
  free energy    TOTEN  =      -966.63533217 eV

  energy without entropy =     -966.63533217  energy(sigma->0) =     -966.63533217


--------------------------------------------------------------------------------------------------------




--------------------------------------- Iteration      1(  18)  ---------------------------------------


    POTLOK:  cpu time      0.1623: real time      0.1640
    SETDIJ:  cpu time      0.0515: real time      0.0518
     EDDAV:  cpu time     21.9360: real time     22.5955
       DOS:  cpu time      0.0012: real time      0.0012
    CHARGE:  cpu time      0.2370: real time      0.2382
    MIXING:  cpu time      0.0207: real time      0.0208
    --------------------------------------------
      LOOP:  cpu time     22.4087: real time     23.0713

 eigenvalue-minimisations  :  5320
 total energy-change (2. order) : 0.2344925E-05  (-0.1938984E-05)
 number of electron     792.0002624 magnetization
 augmentation part      211.2361898 magnetization

 Broyden mixing:
  rms(total) = 0.27068E-02    rms(broyden)= 0.27067E-02
  rms(prec ) = 0.32478E-02
  weight for this iteration     100.00

 eigenvalues of (default mixing * dielectric matrix)
  average eigenvalue GAMMA=   1.1713
  2.9558  2.3872  1.8650  1.2540  1.1046  0.9092  0.9092  0.7766  0.7766  0.6483
  0.5768  0.5768  0.4873

 Free energy of the ion-electron system (eV)
  ---------------------------------------------------
  alpha Z        PSCENC =      3563.47650690
  Ewald energy   TEWEN  =    -48597.60548469
  -Hartree energ DENC   =    -18731.12103100
  -exchange      EXHF   =         0.00000000
  -V(xc)+E(xc)   XCENC  =      3312.72072994
  PAW double counting   =     89174.42550206   -89475.88497372
[...]
      7.58456      3.79228      1.99678    -0.00001 -0.02414 -2.88994 ( -0.63475  6.00000)
      7.58456      7.58456      1.99678    -0.00002  0.00030 -2.89702 ( -0.63481  6.00000)
      0.00000      1.89614      0.40437    -0.00055 -0.00028 -2.89163 ( -0.63482  6.00000)
      0.00000      5.68842      0.40437     0.00048 -0.00257 -2.89421 ( -0.63480  6.00000)
      0.00000      9.48070      0.40437     0.00047  0.00282 -2.89482 ( -0.63483  6.00000)
      3.79228      1.89614      0.40437     0.00051 -0.00037 -2.89169 ( -0.63484  6.00000)
      3.79228      5.68842      0.40437    -0.00054 -0.00259 -2.89480 ( -0.63482  6.00000)
      3.79228      9.48070      0.40437    -0.00049  0.00285 -2.89489 ( -0.63484  6.00000)
      7.58456      1.89614      0.40437    -0.00002 -0.00034 -2.88818 ( -0.63436  6.00000)
      7.58456      5.68842      0.40437     0.00003 -0.00825 -2.89807 ( -0.63480  6.00000)
      7.58456      9.48070      0.40437    -0.00001  0.00847 -2.89814 ( -0.63483  6.00000)
      1.89614      1.89614      2.80551    -0.00034  0.00002 -2.89457 ( -0.63482  6.00000)
      1.89614      5.68842      2.80551    -0.00027 -0.00099 -2.89479 ( -0.63483  6.00000)
      1.89614      9.48070      2.80551    -0.00032  0.00100 -2.89486 ( -0.63484  6.00000)
      5.68842      1.89614      2.80551     0.05229  0.00003 -2.89629 ( -0.63466  6.00000)
      5.68842      5.68842      2.80551    -0.00103 -0.00074 -2.89429 ( -0.63483  6.00000)
      5.68842      9.48070      2.80551    -0.00104  0.00070 -2.89487 ( -0.63484  6.00000)
      9.48070      1.89614      2.80551    -0.05203  0.00001 -2.89636 ( -0.63469  6.00000)
      9.48070      5.68842      2.80551     0.00131 -0.00074 -2.89494 ( -0.63486  6.00000)
      9.48070      9.48070      2.80551     0.00135  0.00075 -2.89496 ( -0.63486  6.00000)
 -----------------------------------------------------------------------------------------
    total drift (improves with k-points):  -0.00049 -0.00011 -0.07205




--------------------------------------------------------------------------------------------------------




 MACROSCOPIC STATIC DIELECTRIC TENSOR (including local field effects in DFT)
 ------------------------------------------------------
           6.971876    -0.000007     0.000011
          -0.000007     6.961399     0.000009
           0.000012     0.000002     6.370732
 ------------------------------------------------------



--------------------------------------------------------------------------------------------------------




--------------------------------------------------------------------------------------------------------




 MACROSCOPIC STATIC DIELECTRIC TENSOR (including local field effects in DFT)
 ------------------------------------------------------
           6.971876    -0.000007     0.000011
          -0.000007     6.961399     0.000009
           0.000012     0.000002     6.370732
 ------------------------------------------------------


 PIEZOELECTRIC TENSOR (including local field effects)  for field in x, y, z        (e  Angst)
          XX          YY          ZZ          XY          YZ          ZX
  --------------------------------------------------------------------------------
  x    -0.00248     0.00177     0.00041     0.00064    -0.00009    -0.25266
  y    -0.00024     0.00035    -0.00032    -0.00012     0.16998     0.00002
  z    -0.23015    -0.36216     0.08441     0.00020     0.00006     0.00006

 PIEZOELECTRIC TENSOR (including local field effects)  for field in x, y, z        (C/m^2)
          XX          YY          ZZ          XY          YZ          ZX
  --------------------------------------------------------------------------------
  x    -0.00003     0.00002     0.00001     0.00001    -0.00000    -0.00326
  y    -0.00000     0.00000    -0.00000    -0.00000     0.00219     0.00000
  z    -0.00297    -0.00467     0.00109     0.00000     0.00000     0.00000

 BORN EFFECTIVE CHARGES (including local field effects) (in |e|, cummulative output)
 ---------------------------------------------------------------------------------
 ion    1
    1     6.67559     0.00009     0.00039
    2     0.00006     6.65676    -0.00025
    3     0.00023    -0.00017     5.78823
 ion    2
    1     6.66851     0.00000    -0.00011
    2    -0.00003     6.65794     0.00196
    3    -0.00022     0.00340     5.78571
 ion    3
    1     6.66874    -0.00012     0.00029
    2    -0.00008     6.65934    -0.00163
    3     0.00018    -0.00323     5.78641
 ion    4
    1     6.92016    -0.00008     0.02049
    2     0.00005     6.65059     0.00012
    3     0.06534     0.00026     5.76430
 ion    5
    1     6.63951    -0.03137     0.00932
    2    -0.00052     6.65557     0.00246
    3     0.00087    -0.01674     5.78646
 ion    6
    1     6.64243     0.03139     0.00931
    2     0.00048     6.65964    -0.00265
    3     0.00079     0.01653     5.78653
 ion    7
    1     6.92102    -0.00003    -0.02072
    2    -0.00008     6.65082    -0.00026
    3    -0.06559    -0.00018     5.76500
 ion    8
    1     6.64365     0.03141    -0.00926
    2     0.00050     6.65860     0.00250
    3    -0.00058    -0.01675     5.78653
 ion    9
    1     6.64392    -0.03134    -0.00960
    2    -0.00040     6.65991    -0.00220
    3    -0.00100     0.01695     5.78718
 ion   10
    1     6.66991    -0.00003     0.00013
    2     0.00001     6.66138     0.00362
    3     0.00026    -0.00112     5.78912
 ion   11
    1     6.67015    -0.00008    -0.00027
    2    -0.00009     6.66273    -0.00393
    3    -0.00016     0.00099     5.78981
 ion   12
    1     6.66408     0.00007    -0.00029
    2     0.00003     6.66217     0.00029
    3    -0.00015     0.00017     5.78736
 ion   13
    1     6.63382     0.02147    -0.02694
    2     0.00166     6.67593     0.01435
    3     0.00684     0.00147     5.77974
 ion   14
    1     6.63677    -0.02150    -0.02691
    2    -0.00163     6.68003    -0.01427
    3     0.00686    -0.00121     5.77979
 ion   15
    1     6.65132     0.00001    -0.00538
    2    -0.00005     6.66414    -0.00009
    3     0.00216    -0.00020     5.78079
 ion   16
    1     6.63790    -0.02152     0.02690
    2    -0.00166     6.67894     0.01434
    3    -0.00702     0.00147     5.77982
 ion   17
    1     6.63814     0.02152     0.02728
    2     0.00167     6.68025    -0.01466
    3    -0.00665    -0.00161     5.78049
 ion   18
    1     6.65279    -0.00002     0.00575
    2    -0.00007     6.66431     0.00033
    3    -0.00192     0.00023     5.78151
 ion   19
    1     6.67272    -0.00220    -0.00004
    2     0.00138     6.65272     0.00457
    3    -0.00566    -0.00207     5.78242
 ion   20
    1     6.67570     0.00216     0.00002
    2    -0.00140     6.65685    -0.00473
    3    -0.00565     0.00182     5.78247
 ion   21
    1     6.66614     0.00000    -0.00031
    2    -0.00005     6.66135     0.00011
    3    -0.00168     0.00025     5.78755
 ion   22
    1     6.67678     0.00223     0.00013
    2    -0.00141     6.65575     0.00461
    3     0.00593    -0.00201     5.78248
 ion   23
    1     6.67702    -0.00219    -0.00028
    2     0.00147     6.65704    -0.00431
    3     0.00551     0.00226     5.78316
 ion   24
    1     6.66746    -0.00006     0.00008
    2    -0.00005     6.66164    -0.00029
    3     0.00156    -0.00015     5.78825
 ion   25
    1     6.66273    -0.00005    -0.00014
    2    -0.00002     6.60850     0.02657
    3    -0.00024     0.01588     5.77667
 ion   26
    1     6.66291    -0.00005     0.00026
    2    -0.00005     6.60981    -0.02625
    3     0.00020    -0.01565     5.77737
 ion   27
    1     6.66018     0.00006     0.00024
    2     0.00002     6.65786    -0.00025
    3     0.00017    -0.00015     5.79120
 ion   28
    1     6.69653    -0.00001     0.00265
    2    -0.00000     6.66038    -0.00011
    3     0.03432    -0.00021     5.79012
 ion   29
    1     6.66758     0.00125    -0.00070
    2     0.00139     6.65972    -0.00022
    3     0.00040     0.00395     5.79306
 ion   30
    1     6.67053    -0.00126    -0.00066
    2    -0.00142     6.66388     0.00035
    3     0.00044    -0.00369     5.79311
 ion   31
    1     6.69786    -0.00012    -0.00245
    2    -0.00009     6.66061     0.00027
    3    -0.03407     0.00021     5.79085
 ion   32
    1     6.67155    -0.00129     0.00058
    2    -0.00142     6.66272    -0.00027
    3    -0.00066     0.00395     5.79313
 ion   33
    1     6.67178     0.00132     0.00095
    2     0.00151     6.66399    -0.00009
    3    -0.00022    -0.00409     5.79381
 ion   34
    1     6.59550     0.00006    -0.00021
    2     0.00010     6.71213     0.00028
    3    -0.00017     0.00017     5.59607
 ion   35
    1     6.65929     0.00002     0.00015
    2     0.00001     6.67916    -0.00095
    3     0.00025     0.00008     5.80196
 ion   36
    1     6.65959    -0.00006    -0.00027
    2    -0.00013     6.68053     0.00065
    3    -0.00017    -0.00021     5.80265
 ion   37
    1    -5.59504    -0.00002     0.00126
    2    -0.00002    -1.12963    -0.00003
    3     0.00407    -0.00003    -2.92262
 ion   38
    1    -5.54387    -0.00169     0.00006
    2    -0.00258    -1.12046     0.00007
    3     0.00485     0.00006    -2.89730
 ion   39
    1    -5.54421     0.00171     0.00002
    2     0.00262    -1.12171    -0.00004
    3     0.00484    -0.00004    -2.89788
 ion   40
    1    -5.59398     0.00018    -0.00134
    2     0.00006    -1.12965    -0.00002
    3    -0.00445    -0.00001    -2.92271
 ion   41
    1    -5.54298     0.00170    -0.00011
    2     0.00261    -1.12058     0.00011
    3    -0.00515     0.00006    -2.89793
 ion   42
    1    -5.54311    -0.00183    -0.00011
    2    -0.00265    -1.12173    -0.00009
    3    -0.00514    -0.00005    -2.89796
 ion   43
    1    -5.83735    -0.00026     0.00001
    2    -0.00015    -1.14730    -0.00010
    3     0.00022    -0.00004    -2.62306
 ion   44
    1    -5.50599     0.00002     0.00010
    2     0.00001    -1.12072     0.00036
    3     0.00026     0.00173    -2.90181
 ion   45
    1    -5.50618     0.00012     0.00011
    2     0.00006    -1.12189    -0.00034
    3     0.00033    -0.00172    -2.90187
 ion   46
    1    -1.12424    -0.00005    -0.00005
    2    -0.00012    -5.53909     0.00006
    3    -0.00001     0.00029    -2.89625
 ion   47
    1    -1.12439     0.00000     0.00000
    2     0.00004    -5.53857    -0.00043
    3    -0.00004    -0.00166    -2.89378
 ion   48
    1    -1.12442     0.00007    -0.00002
    2     0.00012    -5.53748     0.00034
    3    -0.00001     0.00134    -2.89386
 ion   49
    1    -1.13340    -0.00002     0.05013
    2    -0.00003    -5.56439     0.00005
    3    -0.00200     0.00025    -2.88971
 ion   50
    1    -1.12032     0.00978     0.00418
    2    -0.00004    -5.53934    -0.00100
    3    -0.00100    -0.00276    -2.88842
 ion   51
    1    -1.12044    -0.00977     0.00423
    2     0.00007    -5.53839     0.00098
    3    -0.00097     0.00247    -2.88903
 ion   52
    1    -1.13454     0.00008    -0.05015
    2     0.00013    -5.56455     0.00009
    3     0.00200     0.00028    -2.88979
 ion   53
    1    -1.12158    -0.00980    -0.00419
    2     0.00002    -5.53963    -0.00102
    3     0.00102    -0.00278    -2.88899
 ion   54
    1    -1.12160     0.00974    -0.00420
    2    -0.00019    -5.53855     0.00089
    3     0.00100     0.00241    -2.88907
 ion   55
    1    -1.12462     0.00002     0.00001
    2     0.00003    -5.53529    -0.00243
    3     0.00005     0.00585    -2.89716
 ion   56
    1    -1.12465     0.00009     0.00002
    2     0.00013    -5.53418     0.00249
    3     0.00002    -0.00557    -2.89725
 ion   57
    1    -1.12445    -0.00006     0.00004
    2    -0.00013    -5.53761    -0.00008
    3     0.00001    -0.00028    -2.89392
 ion   58
    1    -1.13290    -0.06613     0.01589
    2     0.00635    -5.52760    -0.01652
    3    -0.00720    -0.02329    -2.89294
 ion   59
    1    -1.13303     0.06616     0.01591
    2    -0.00636    -5.52664     0.01661
    3    -0.00718     0.02353    -2.89353
 ion   60
    1    -1.12098     0.00001     0.00240
    2    -0.00000    -5.54132    -0.00003
    3    -0.00002    -0.00028    -2.89067
 ion   61
    1    -1.13411     0.06615    -0.01592
    2    -0.00636    -5.52792    -0.01659
    3     0.00715    -0.02328    -2.89352
 ion   62
    1    -1.13414    -0.06622    -0.01590
    2     0.00627    -5.52686     0.01664
    3     0.00719     0.02361    -2.89360
 ion   63
    1    -1.12209     0.00009    -0.00241
    2     0.00016    -5.54149    -0.00010
    3     0.00003    -0.00034    -2.89073
 ion   64
    1    -5.54430     0.00131    -0.00019
    2     0.00284    -1.12283     0.00023
    3     0.00120    -0.00091    -2.89331
 ion   65
    1    -5.54461    -0.00129    -0.00020
    2    -0.00282    -1.12407    -0.00024
    3     0.00124     0.00087    -2.89388
 ion   66
    1    -5.54014    -0.00000    -0.00003
    2     0.00002    -1.12311     0.00001
    3     0.00104     0.00002    -2.89398
 ion   67
    1    -5.54341    -0.00129     0.00020
    2    -0.00285    -1.12296     0.00021
    3    -0.00098    -0.00095    -2.89394
 ion   68
    1    -5.54357     0.00117     0.00023
    2     0.00276    -1.12410    -0.00024
    3    -0.00096     0.00093    -2.89396
 ion   69
    1    -5.53902     0.00012     0.00003
    2     0.00009    -1.12317     0.00000
    3    -0.00077    -0.00002    -2.89406
 ion   70
    1    -5.49704     0.00001    -0.00009
    2     0.00002    -1.11997     0.00063
    3    -0.00031    -0.00488    -2.89288
 ion   71
    1    -5.49719     0.00016    -0.00015
    2     0.00007    -1.12112    -0.00067
    3    -0.00034     0.00484    -2.89295
 ion   72
    1    -5.52204    -0.00012    -0.00012
    2    -0.00005    -1.12315     0.00002
    3    -0.00033     0.00002    -2.89390
 ion   73
    1    -5.54670    -0.00000     0.00007
    2     0.00002    -1.12192     0.00007
    3     0.00029     0.00012    -2.89184
 ion   74
    1    -5.54686     0.00015     0.00009
    2     0.00006    -1.12308    -0.00006
    3     0.00029    -0.00013    -2.89185
 ion   75
    1    -5.54219    -0.00015     0.00003
    2    -0.00008    -1.12385    -0.00002
    3     0.00029     0.00002    -2.89319
 ion   76
    1    -5.54525    -0.00211     0.00047
    2     0.00463    -1.12174     0.00037
    3    -0.00218    -0.00198    -2.88786
 ion   77
    1    -5.54555     0.00211     0.00047
    2    -0.00464    -1.12300    -0.00033
    3    -0.00221     0.00202    -2.88846
 ion   78
    1    -5.54000     0.00001     0.00017
    2     0.00002    -1.12439    -0.00002
    3    -0.00009    -0.00004    -2.89114
 ion   79
    1    -5.54430     0.00214    -0.00056
    2    -0.00463    -1.12186     0.00038
    3     0.00190    -0.00200    -2.88849
 ion   80
    1    -5.54445    -0.00227    -0.00061
    2     0.00456    -1.12303    -0.00036
    3     0.00190     0.00200    -2.88853
 ion   81
    1    -5.53899     0.00013    -0.00025
    2     0.00010    -1.12441    -0.00002
    3    -0.00022    -0.00001    -2.89126
 ion   82
    1    -1.12817    -0.00221     0.00073
    2     0.00159    -5.54037    -0.00438
    3    -0.00089     0.00725    -2.88876
 ion   83
    1    -1.12830     0.00222     0.00071
    2    -0.00159    -5.53941     0.00437
    3    -0.00090    -0.00751    -2.88934
 ion   84
    1    -1.12428     0.00000     0.00035
    2    -0.00000    -5.53818     0.00004
    3     0.00014     0.00026    -2.89407
 ion   85
    1    -1.12941     0.00223    -0.00068
    2    -0.00158    -5.54061    -0.00442
    3     0.00092     0.00721    -2.88933
 ion   86
    1    -1.12944    -0.00224    -0.00071
    2     0.00148    -5.53954     0.00435
    3     0.00090    -0.00757    -2.88941
 ion   87
    1    -1.12542     0.00008    -0.00040
    2     0.00012    -5.53832     0.00010
    3    -0.00015     0.00030    -2.89415
 ion   88
    1    -1.11424     0.00001    -0.00001
    2     0.00002    -5.56988    -0.04449
    3    -0.00002     0.02384    -2.88918
 ion   89
    1    -1.11426     0.00008    -0.00002
    2     0.00014    -5.56876     0.04440
    3    -0.00001    -0.02414    -2.88927
 ion   90
    1    -1.11953    -0.00006    -0.00001
    2    -0.00010    -5.54306     0.00008
    3    -0.00001     0.00030    -2.89635
 ion   91
    1    -1.12784    -0.00000    -0.00069
    2    -0.00002    -5.53078    -0.00001
    3    -0.00055    -0.00028    -2.89096
 ion   92
    1    -1.12419    -0.00085    -0.00042
    2    -0.00011    -5.53805     0.00040
    3     0.00049    -0.00257    -2.89355
 ion   93
    1    -1.12431     0.00086    -0.00046
    2     0.00013    -5.53710    -0.00033
    3     0.00047     0.00282    -2.89416
 ion   94
    1    -1.12898     0.00007     0.00064
    2     0.00014    -5.53092    -0.00009
    3     0.00052    -0.00037    -2.89102
 ion   95
    1    -1.12544     0.00086     0.00043
    2     0.00011    -5.53838     0.00040
    3    -0.00053    -0.00259    -2.89414
 ion   96
    1    -1.12545    -0.00094     0.00043
    2    -0.00025    -5.53730    -0.00028
    3    -0.00048     0.00285    -2.89423
 ion   97
    1    -1.09757    -0.00006     0.00006
    2    -0.00013    -5.45467    -0.00002
    3    -0.00002    -0.00034    -2.88752
 ion   98
    1    -1.12061     0.00000    -0.00000
    2     0.00000    -5.53322     0.00023
    3     0.00004    -0.00825    -2.89740
 ion   99
    1    -1.12067     0.00008    -0.00000
    2     0.00012    -5.53212    -0.00016
    3    -0.00001     0.00847    -2.89747
 ion  100
    1    -5.54102    -0.00014    -0.00010
    2    -0.00007    -1.11998     0.00001
    3    -0.00034     0.00002    -2.89391
 ion  101
    1    -5.54408     0.00006    -0.00003
    2     0.00004    -1.12343     0.00002
    3    -0.00027    -0.00099    -2.89412
 ion  102
    1    -5.54424     0.00011    -0.00006
    2     0.00005    -1.12460    -0.00004
    3    -0.00032     0.00100    -2.89419
 ion  103
    1    -5.56697    -0.00003    -0.00296
    2     0.00001    -1.11821     0.00002
    3     0.05229     0.00003    -2.89562
 ion  104
    1    -5.54176     0.00185    -0.00023
    2     0.00006    -1.12539     0.00012
    3    -0.00103    -0.00074    -2.89362
 ion  105
    1    -5.54208    -0.00183    -0.00023
    2    -0.00004    -1.12662    -0.00015
    3    -0.00103     0.00070    -2.89421
 ion  106
    1    -5.56586     0.00015     0.00308
    2     0.00006    -1.11823     0.00000
    3    -0.05203     0.00001    -2.89569
 ion  107
    1    -5.54087    -0.00190     0.00035
    2    -0.00009    -1.12553     0.00012
    3     0.00132    -0.00074    -2.89427
 ion  108
    1    -5.54104     0.00175     0.00034
    2     0.00001    -1.12668    -0.00013
    3     0.00136     0.00075    -2.89429


--------------------------------------------------------------------------------------------------------


     LOOP+:  cpu time   2929.8980: real time   2990.2434
    4ORBIT:  cpu time      0.0000: real time      0.0000

 total amount of memory used by VASP MPI-rank0   266725. kBytes
=======================================================================

   base      :      30000. kBytes
   nonlr-proj:      19556. kBytes
   fftplans  :      10927. kBytes
   grid      :      23181. kBytes
   one-center:       1679. kBytes
   wavefun   :     181382. kBytes



 General timing and accounting informations for this job:
 ========================================================

                  Total CPU time used (sec):     2941.018
                            User time (sec):     2883.180
                          System time (sec):       57.838
                         Elapsed time (sec):     3021.751

                   Maximum memory used (kb):     1087936.
                   Average memory used (kb):          N/A

                          Minor page faults:      1202509
                          Major page faults:            1
                 Voluntary context switches:       121584
