 vasp.6.3.0 20Jan22 (build Mar 29 2022 16:24:06) complex

 executed on             Bridges2 date 2023.01.12  19:12:13
 running on   32 total cores
 distrk:  each k-point on    4 cores,    8 groups
 distr:  one band on NCORE=   1 cores,    4 groups


--------------------------------------------------------------------------------------------------------


 INCAR:
   ICHARG = 2
   LWAVE = .FALSE.
   LCHARG = .FALSE.
   LVTOT = .FALSE.
   NCORE = 1
   KPAR = 8
   EDIFF = 1E-7
   NELM = 80
   PREC = Normal
   LREAL = Auto
   NELMIN = 4
   ENCUT = 400.0 eV
   ISPIN = 1
   ISMEAR = 0
   SIGMA = 0.10
   NSW = 0
   LEPSILON = .TRUE.
   LPEAD = .TRUE.
   ISYM = 0

 POTCAR:    PAW_PBE Ti_pv 07Sep2000
 POTCAR:    PAW_PBE O 08Apr2002
 -----------------------------------------------------------------------------
|                                                                             |
|           W    W    AA    RRRRR   N    N  II  N    N   GGGG   !!!           |
|           W    W   A  A   R    R  NN   N  II  NN   N  G    G  !!!           |
|           W    W  A    A  R    R  N N  N  II  N N  N  G       !!!           |
|           W WW W  AAAAAA  RRRRR   N  N N  II  N  N N  G  GGG   !            |
|           WW  WW  A    A  R   R   N   NN  II  N   NN  G    G                |
|           W    W  A    A  R    R  N    N  II  N    N   GGGG   !!!           |
|                                                                             |
|     For optimal performance we recommend to set                             |
|       NCORE = 2 up to number-of-cores-per-socket                            |
|     NCORE specifies how many cores store one orbital (NPAR=cpu/NCORE).      |
|     This setting can greatly improve the performance of VASP for DFT.       |
|     The default, NCORE=1 might be grossly inefficient on modern             |
|     multi-core architectures or massively parallel machines. Do your        |
|     own testing! More info at https://www.vasp.at/wiki/index.php/NCORE      |
|     Unfortunately you need to use the default for GW and RPA                |
|     calculations (for HF NCORE is supported but not extensively tested      |
|     yet).                                                                   |
|                                                                             |
 -----------------------------------------------------------------------------

 POTCAR:    PAW_PBE Ti_pv 07Sep2000
   VRHFIN =Ti: d3 s1
   LEXCH  = PE
   EATOM  =  1042.5995 eV,   76.6289 Ry

   TITEL  = PAW_PBE Ti_pv 07Sep2000
   LULTRA =        F    use ultrasoft PP ?
   IUNSCR =        1    unscreen: 0-lin 1-nonlin 2-no
   RPACOR =    2.200    partial core radius
   POMASS =   47.880; ZVAL   =   10.000    mass and valenz
   RCORE  =    2.500    outmost cutoff radius
   RWIGS  =    2.500; RWIGS  =    1.323    wigner-seitz radius (au A)
   ENMAX  =  222.335; ENMIN  =  166.751 eV
   RCLOC  =    1.701    cutoff for local pot
   LCOR   =        T    correct aug charges
   LPAW   =        T    paw PP
   EAUG   =  482.848
   DEXC   =    0.000
   RMAX   =    2.564    core radius for proj-oper
   RAUG   =    1.300    factor for augmentation sphere
   RDEP   =    2.538    radius for radial grids
   RDEPT  =    1.952    core radius for aug-charge

   Atomic configuration
    8 entries
     n  l   j            E        occ.
     1  0  0.50     -4865.3608   2.0000
     2  0  0.50      -533.1368   2.0000
     2  1  1.50      -440.5031   6.0000
     3  0  0.50       -59.3186   2.0000
     3  1  1.50       -35.7012   6.0000
     3  2  2.50        -1.9157   3.0000
     4  0  0.50        -3.7291   1.0000
     4  3  2.50        -1.3606   0.0000
   Description
     l       E           TYP  RCUT    TYP  RCUT
     1    -35.7012140     23  2.300
     1     -1.3605826     23  2.300
     2     -1.9156996     23  2.500
     2     -0.4063033     23  2.500
     0     -3.7290856     23  2.500
     0     20.4087390     23  2.500
  local pseudopotential read in
  partial core-charges read in
  partial kinetic energy density read in
  atomic valenz-charges read in
  non local Contribution for L=           1  read in
    real space projection operators read in
  non local Contribution for L=           1  read in
    real space projection operators read in
  non local Contribution for L=           2  read in
    real space projection operators read in
  non local Contribution for L=           2  read in
    real space projection operators read in
  non local Contribution for L=           0  read in
    real space projection operators read in
  non local Contribution for L=           0  read in
    real space projection operators read in
    PAW grid and wavefunctions read in

   number of l-projection  operators is LMAX  =           6
   number of lm-projection operators is LMMAX =          18

 POTCAR:    PAW_PBE O 08Apr2002
   VRHFIN =O: s2p4
   LEXCH  = PE
   EATOM  =   432.3788 eV,   31.7789 Ry

   TITEL  = PAW_PBE O 08Apr2002
   LULTRA =        F    use ultrasoft PP ?
   IUNSCR =        1    unscreen: 0-lin 1-nonlin 2-no
   RPACOR =    1.200    partial core radius
   POMASS =   16.000; ZVAL   =    6.000    mass and valenz
   RCORE  =    1.520    outmost cutoff radius
   RWIGS  =    1.550; RWIGS  =    0.820    wigner-seitz radius (au A)
   ENMAX  =  400.000; ENMIN  =  300.000 eV
   ICORE  =        2    local potential
   LCOR   =        T    correct aug charges
   LPAW   =        T    paw PP
   EAUG   =  605.392
   DEXC   =    0.000
   RMAX   =    1.553    core radius for proj-oper
   RAUG   =    1.300    factor for augmentation sphere
   RDEP   =    1.550    radius for radial grids
   RDEPT  =    1.329    core radius for aug-charge

   Atomic configuration
    4 entries
     n  l   j            E        occ.
     1  0  0.50      -514.6923   2.0000
     2  0  0.50       -23.9615   2.0000
     2  1  0.50        -9.0305   4.0000
     3  2  1.50        -9.5241   0.0000
   Description
     l       E           TYP  RCUT    TYP  RCUT
     0    -23.9615318     23  1.200
     0     -9.5240782     23  1.200
     1     -9.0304911     23  1.520
     1      8.1634956     23  1.520
     2     -9.5240782      7  1.500
  local pseudopotential read in
  partial core-charges read in
  partial kinetic energy density read in
  kinetic energy density of atom read in
  atomic valenz-charges read in
  non local Contribution for L=           0  read in
    real space projection operators read in
  non local Contribution for L=           0  read in
    real space projection operators read in
  non local Contribution for L=           1  read in
    real space projection operators read in
  non local Contribution for L=           1  read in
    real space projection operators read in
    PAW grid and wavefunctions read in

   number of l-projection  operators is LMAX  =           4
   number of lm-projection operators is LMMAX =           8

 Optimization of the real space projectors (new method)

 maximal supplied QI-value         = 15.12
 optimisation between [QCUT,QGAM] = [ 10.13, 20.41] = [ 28.73,116.64] Ry
 Optimized for a Real-space Cutoff    1.51 Angstroem

   l    n(q)    QCUT    max X(q) W(low)/X(q) W(high)/X(q)  e(spline)
   1      9    10.129     4.216    0.12E-04    0.72E-04    0.60E-07
   1      9    10.129     5.422    0.84E-04    0.21E-03    0.15E-06
   2      8    10.129    72.084    0.33E-03    0.35E-04    0.17E-06
   2      8    10.129    65.965    0.33E-03    0.37E-04    0.17E-06
   0      9    10.129    41.531    0.17E-03    0.19E-03    0.81E-07
   0      9    10.129    16.290    0.12E-03    0.14E-03    0.64E-07
 Optimization of the real space projectors (new method)

 maximal supplied QI-value         = 24.76
 optimisation between [QCUT,QGAM] = [ 10.15, 20.30] = [ 28.85,115.39] Ry
 Optimized for a Real-space Cutoff    1.38 Angstroem

   l    n(q)    QCUT    max X(q) W(low)/X(q) W(high)/X(q)  e(spline)
   0      8    10.150    20.381    0.22E-03    0.32E-03    0.29E-06
   0      8    10.150    15.268    0.23E-03    0.35E-03    0.30E-06
   1      8    10.150     5.964    0.46E-03    0.53E-03    0.21E-06
   1      8    10.150     5.382    0.38E-03    0.45E-03    0.19E-06
  PAW_PBE Ti_pv 07Sep2000               :
 energy of atom  1       EATOM=-1042.5995
 kinetic energy error for atom=    0.0037 (will be added to EATOM!!)
  PAW_PBE O 08Apr2002                   :
 energy of atom  2       EATOM= -432.3788
 kinetic energy error for atom=    0.1156 (will be added to EATOM!!)


 POSCAR: Ti4 O8
  positions in cartesian coordinates
  No initial velocities read in
 exchange correlation table for  LEXCH =        8
   RHO(1)=    0.500       N(1)  =     2000
   RHO(2)=  100.500       N(2)  =     4000



--------------------------------------------------------------------------------------------------------


 ion  position               nearest neighbor table
   1  0.167  0.167  0.500-  56 1.94  55 1.94  40 1.94  37 1.94 100 2.00  46 2.00  31 3.06  28 3.06
                            11 3.06  10 3.06
   2  0.167  0.500  0.500-  56 1.94  41 1.94  38 1.94  57 1.94 101 2.00  47 2.00  11 3.06  32 3.06
                            29 3.06  12 3.06
   3  0.167  0.833  0.500-  57 1.94  42 1.94  39 1.94  55 1.94 102 2.00  48 2.00  12 3.06  33 3.06
                            30 3.06  10 3.06
   4  0.500  0.167  0.500-  40 1.94  59 1.94  58 1.94 103 2.00  49 2.00  43 2.13  31 3.06  14 3.06
                            13 3.06  34 3.06
   5  0.500  0.500  0.500-  59 1.94  41 1.94  60 1.94  44 1.94 104 2.00  50 2.00  32 3.06  14 3.06
                            35 3.06  15 3.06
   6  0.500  0.833  0.500-  60 1.94  42 1.94  58 1.94  45 1.94 105 2.00  51 2.00  15 3.06  33 3.06
                            13 3.06  36 3.06
   7  0.833  0.167  0.500-  43 1.74  62 1.94  61 1.94  37 1.94 106 2.00  52 2.00  34 3.06  17 3.06
                            16 3.06  28 3.06
   8  0.833  0.500  0.500-  44 1.94  62 1.94  63 1.94  38 1.94 107 2.00  53 2.00  35 3.06  17 3.06
                            29 3.06  18 3.06
   9  0.833  0.833  0.500-  63 1.94  45 1.94  61 1.94  39 1.94 108 2.00  54 2.00  36 3.06  18 3.06
                            30 3.06  16 3.06
  10  0.167  0.000  0.750-  67 1.94  64 1.94  46 1.94  48 1.94  73 2.00  55 2.00  22 3.06  19 3.06
                             1 3.06   3 3.06
  11  0.167  0.333  0.750-  47 1.94  46 1.94  68 1.94  65 1.94  74 2.00  56 2.00   2 3.06  23 3.06
                            20 3.06   1 3.06
  12  0.167  0.667  0.750-  48 1.94  69 1.94  66 1.94  47 1.94  75 2.00  57 2.00   3 3.06  24 3.06
                            21 3.06   2 3.06
  13  0.500  0.000  0.750-  67 1.94  49 1.94  51 1.94  70 1.94  76 2.00  58 2.00  22 3.06   4 3.06
                            25 3.06   6 3.06
  14  0.500  0.333  0.750-  50 1.94  68 1.94  49 1.94  71 1.94  77 2.00  59 2.00  23 3.06   5 3.06
                             4 3.06  26 3.06
  15  0.500  0.667  0.750-  51 1.94  69 1.94  50 1.94  72 1.94  78 2.00  60 2.00   6 3.06  24 3.06
                            27 3.06   5 3.06
  16  0.833  0.000  0.750-  70 1.94  52 1.94  64 1.94  54 1.94  79 2.00  61 2.00  25 3.06   7 3.06
                            19 3.06   9 3.06
  17  0.833  0.333  0.750-  71 1.94  53 1.94  52 1.94  65 1.94  80 2.00  62 2.00  26 3.06   8 3.06
                             7 3.06  20 3.06
  18  0.833  0.667  0.750-  54 1.94  72 1.94  66 1.94  53 1.94  81 2.00  63 2.00  27 3.06   9 3.06
                            21 3.06   8 3.06
  19  0.000  0.000  0.000-  73 1.94  91 1.94  79 1.94  93 1.94  82 2.00  64 2.00  10 3.06  28 3.06
                            16 3.06  30 3.06
  20  0.000  0.333  0.000-  92 1.94  74 1.94  91 1.94  80 1.94  83 2.00  65 2.00  29 3.06  11 3.06
                            28 3.06  17 3.06
  21  0.000  0.667  0.000-  93 1.94  75 1.94  81 1.94  92 1.94  84 2.00  66 2.00  30 3.06  12 3.06
                            18 3.06  29 3.06
  22  0.333  0.000  0.000-  76 1.94  73 1.94  94 1.94  96 1.94  85 2.00  67 2.00  13 3.06  10 3.06
                            31 3.06  33 3.06
  23  0.333  0.333  0.000-  77 1.94  95 1.94  74 1.94  94 1.94  86 2.00  68 2.00  14 3.06  32 3.06
                            11 3.06  31 3.06
  24  0.333  0.667  0.000-  96 1.94  78 1.94  75 1.94  95 1.94  87 2.00  69 2.00  33 3.06  15 3.06
                            12 3.06  32 3.06
  25  0.667  0.000  0.000-  79 1.94  97 1.94  76 1.94  99 1.94  88 2.00  70 2.00  16 3.06  34 3.06
                            13 3.06  36 3.06
  26  0.667  0.333  0.000-  80 1.94  98 1.94  97 1.94  77 1.94  89 2.00  71 2.00  17 3.06  35 3.06
                            34 3.06  14 3.06
  27  0.667  0.667  0.000-  81 1.94  99 1.94  78 1.94  98 1.94  90 2.00  72 2.00  18 3.06  36 3.06
                            15 3.06  35 3.06
  28  0.000  0.167  0.250-  83 1.94  82 1.94 100 1.94 106 1.94  37 2.00  91 2.00   1 3.06  20 3.06
                            19 3.06   7 3.06
  29  0.000  0.500  0.250-  83 1.94 101 1.94  84 1.94 107 1.94  38 2.00  92 2.00  20 3.06   2 3.06
                             8 3.06  21 3.06
  30  0.000  0.833  0.250-  84 1.94 102 1.94  82 1.94 108 1.94  39 2.00  93 2.00  21 3.06   3 3.06
                             9 3.06  19 3.06
  31  0.333  0.167  0.250- 103 1.94  86 1.94  85 1.94 100 1.94  40 2.00  94 2.00   4 3.06   1 3.06
                            23 3.06  22 3.06
  32  0.333  0.500  0.250-  86 1.94 104 1.94 101 1.94  87 1.94  41 2.00  95 2.00   5 3.06  23 3.06
                             2 3.06  24 3.06
  33  0.333  0.833  0.250-  87 1.94 105 1.94 102 1.94  85 1.94  42 2.00  96 2.00  24 3.06   6 3.06
                             3 3.06  22 3.06
  34  0.667  0.167  0.250- 106 1.94  89 1.94  88 1.94 103 1.94  97 2.00  43 2.01   7 3.06  26 3.06
                            25 3.06   4 3.06
  35  0.667  0.500  0.250- 107 1.94  89 1.94  90 1.94 104 1.94  44 2.00  98 2.00   8 3.06  26 3.06
                             5 3.06  27 3.06
  36  0.667  0.833  0.250-  90 1.94 108 1.94  88 1.94 105 1.94  45 2.00  99 2.00   9 3.06  27 3.06
                            25 3.06   6 3.06
  37  0.000  0.167  0.458-   1 1.94   7 1.94  28 2.00
  38  0.000  0.500  0.458-   2 1.94   8 1.94  29 2.00
  39  0.000  0.833  0.458-   3 1.94   9 1.94  30 2.00
  40  0.333  0.167  0.458-   4 1.94   1 1.94  31 2.00
  41  0.333  0.500  0.458-   5 1.94   2 1.94  32 2.00
  42  0.333  0.833  0.458-   6 1.94   3 1.94  33 2.00
  43  0.684  0.167  0.458-   7 1.74  34 2.01   4 2.13
  44  0.667  0.500  0.458-   8 1.94   5 1.94  35 2.00
  45  0.667  0.833  0.458-   9 1.94   6 1.94  36 2.00
  46  0.167  0.167  0.708-  11 1.94  10 1.94   1 2.00
  47  0.167  0.500  0.708-  11 1.94  12 1.94   2 2.00
  48  0.167  0.833  0.708-  12 1.94  10 1.94   3 2.00
  49  0.500  0.167  0.708-  14 1.94  13 1.94   4 2.00
  50  0.500  0.500  0.708-  14 1.94  15 1.94   5 2.00
  51  0.500  0.833  0.708-  15 1.94  13 1.94   6 2.00
  52  0.833  0.167  0.708-  17 1.94  16 1.94   7 2.00
  53  0.833  0.500  0.708-  17 1.94  18 1.94   8 2.00
  54  0.833  0.833  0.708-  18 1.94  16 1.94   9 2.00
  55  0.167  0.000  0.542-   1 1.94   3 1.94  10 2.00
  56  0.167  0.333  0.542-   2 1.94   1 1.94  11 2.00
  57  0.167  0.667  0.542-   3 1.94   2 1.94  12 2.00
  58  0.500  0.000  0.542-   4 1.94   6 1.94  13 2.00
  59  0.500  0.333  0.542-   5 1.94   4 1.94  14 2.00
  60  0.500  0.667  0.542-   6 1.94   5 1.94  15 2.00
  61  0.833  0.000  0.542-   7 1.94   9 1.94  16 2.00
  62  0.833  0.333  0.542-   8 1.94   7 1.94  17 2.00
  63  0.833  0.667  0.542-   9 1.94   8 1.94  18 2.00
  64  0.000  0.000  0.792-  10 1.94  16 1.94  19 2.00
  65  0.000  0.333  0.792-  11 1.94  17 1.94  20 2.00
  66  0.000  0.667  0.792-  12 1.94  18 1.94  21 2.00
  67  0.333  0.000  0.792-  13 1.94  10 1.94  22 2.00
  68  0.333  0.333  0.792-  14 1.94  11 1.94  23 2.00
  69  0.333  0.667  0.792-  15 1.94  12 1.94  24 2.00
  70  0.667  0.000  0.792-  16 1.94  13 1.94  25 2.00
  71  0.667  0.333  0.792-  17 1.94  14 1.94  26 2.00
  72  0.667  0.667  0.792-  18 1.94  15 1.94  27 2.00
  73  0.167  0.000  0.958-  22 1.94  19 1.94  10 2.00
  74  0.167  0.333  0.958-  23 1.94  20 1.94  11 2.00
  75  0.167  0.667  0.958-  24 1.94  21 1.94  12 2.00
  76  0.500  0.000  0.958-  22 1.94  25 1.94  13 2.00
  77  0.500  0.333  0.958-  23 1.94  26 1.94  14 2.00
  78  0.500  0.667  0.958-  24 1.94  27 1.94  15 2.00
  79  0.833  0.000  0.958-  25 1.94  19 1.94  16 2.00
  80  0.833  0.333  0.958-  26 1.94  20 1.94  17 2.00
  81  0.833  0.667  0.958-  27 1.94  21 1.94  18 2.00
  82  0.000  0.000  0.208-  28 1.94  30 1.94  19 2.00
  83  0.000  0.333  0.208-  29 1.94  28 1.94  20 2.00
  84  0.000  0.667  0.208-  30 1.94  29 1.94  21 2.00
  85  0.333  0.000  0.208-  31 1.94  33 1.94  22 2.00
  86  0.333  0.333  0.208-  32 1.94  31 1.94  23 2.00
  87  0.333  0.667  0.208-  33 1.94  32 1.94  24 2.00
  88  0.667  0.000  0.208-  34 1.94  36 1.94  25 2.00
  89  0.667  0.333  0.208-  35 1.94  34 1.94  26 2.00
  90  0.667  0.667  0.208-  36 1.94  35 1.94  27 2.00
  91  0.000  0.167  0.042-  20 1.94  19 1.94  28 2.00
  92  0.000  0.500  0.042-  20 1.94  21 1.94  29 2.00
  93  0.000  0.833  0.042-  21 1.94  19 1.94  30 2.00
  94  0.333  0.167  0.042-  23 1.94  22 1.94  31 2.00
  95  0.333  0.500  0.042-  23 1.94  24 1.94  32 2.00
  96  0.333  0.833  0.042-  24 1.94  22 1.94  33 2.00
  97  0.667  0.167  0.042-  26 1.94  25 1.94  34 2.00
  98  0.667  0.500  0.042-  26 1.94  27 1.94  35 2.00
  99  0.667  0.833  0.042-  27 1.94  25 1.94  36 2.00
 100  0.167  0.167  0.292-  31 1.94  28 1.94   1 2.00
 101  0.167  0.500  0.292-  32 1.94  29 1.94   2 2.00
 102  0.167  0.833  0.292-  33 1.94  30 1.94   3 2.00
 103  0.500  0.167  0.292-  31 1.94  34 1.94   4 2.00
 104  0.500  0.500  0.292-  32 1.94  35 1.94   5 2.00
 105  0.500  0.833  0.292-  33 1.94  36 1.94   6 2.00
 106  0.833  0.167  0.292-  34 1.94  28 1.94   7 2.00
 107  0.833  0.500  0.292-  35 1.94  29 1.94   8 2.00
 108  0.833  0.833  0.292-  36 1.94  30 1.94   9 2.00


IMPORTANT INFORMATION: All symmetrisations will be switched off!
NOSYMM: (Re-)initialisation of all symmetry stuff for point group C_1.


----------------------------------------------------------------------------------------

                                     Primitive cell

  volume of cell :    1243.1447

  direct lattice vectors                    reciprocal lattice vectors
    11.376843452  0.000000000  0.000000000     0.087897843  0.000000000  0.000000000
     0.000000000 11.376843452  0.000000000     0.000000000  0.087897843  0.000000000
     0.000000000  0.000000000  9.604574204     0.000000000  0.000000000  0.104117057

  length of vectors
    11.376843452 11.376843452  9.604574204     0.087897843  0.087897843  0.104117057

  position of ions in fractional coordinates (direct lattice)
     0.166666672  0.166666672  0.500000000
     0.166666672  0.500000000  0.500000000
     0.166666672  0.833333313  0.500000000
     0.500000000  0.166666672  0.500000000
     0.500000000  0.500000000  0.500000000
     0.500000000  0.833333313  0.500000000
     0.833333313  0.166666672  0.500000000
     0.833333313  0.500000000  0.500000000
     0.833333313  0.833333313  0.500000000
     0.166666672  0.000000000  0.750000000
     0.166666672  0.333333343  0.750000000
     0.166666672  0.666666687  0.750000000
     0.500000000  0.000000000  0.750000000
     0.500000000  0.333333343  0.750000000
     0.500000000  0.666666687  0.750000000
     0.833333313  0.000000000  0.750000000
     0.833333313  0.333333343  0.750000000
     0.833333313  0.666666687  0.750000000
     0.000000000  0.000000000  0.000000000
     0.000000000  0.333333343  0.000000000
     0.000000000  0.666666687  0.000000000
     0.333333343  0.000000000  0.000000000
     0.333333343  0.333333343  0.000000000
     0.333333343  0.666666687  0.000000000
     0.666666687  0.000000000  0.000000000
     0.666666687  0.333333343  0.000000000
     0.666666687  0.666666687  0.000000000
     0.000000000  0.166666672  0.250000000
     0.000000000  0.500000000  0.250000000
     0.000000000  0.833333313  0.250000000
     0.333333343  0.166666672  0.250000000
     0.333333343  0.500000000  0.250000000
     0.333333343  0.833333313  0.250000000
     0.666666687  0.166666672  0.250000000
     0.666666687  0.500000000  0.250000000
     0.666666687  0.833333313  0.250000000
     0.000000000  0.166666672  0.457898587
     0.000000000  0.500000000  0.457898587
     0.000000000  0.833333313  0.457898587
     0.333333343  0.166666672  0.457898587
     0.333333343  0.500000000  0.457898587
     0.333333343  0.833333313  0.457898587
     0.684246255  0.166666672  0.457898587
     0.666666687  0.500000000  0.457898587
     0.666666687  0.833333313  0.457898587
     0.166666672  0.166666672  0.707898617
     0.166666672  0.500000000  0.707898617
     0.166666672  0.833333313  0.707898617
     0.500000000  0.166666672  0.707898617
     0.500000000  0.500000000  0.707898617
     0.500000000  0.833333313  0.707898617
     0.833333313  0.166666672  0.707898617
     0.833333313  0.500000000  0.707898617
     0.833333313  0.833333313  0.707898617
     0.166666672  0.000000000  0.542101383
     0.166666672  0.333333343  0.542101383
     0.166666672  0.666666687  0.542101383
     0.500000000  0.000000000  0.542101383
     0.500000000  0.333333343  0.542101383
     0.500000000  0.666666687  0.542101383
     0.833333313  0.000000000  0.542101383
     0.833333313  0.333333343  0.542101383
     0.833333313  0.666666687  0.542101383
     0.000000000  0.000000000  0.792101383
     0.000000000  0.333333343  0.792101383
     0.000000000  0.666666687  0.792101383
     0.333333343  0.000000000  0.792101383
     0.333333343  0.333333343  0.792101383
     0.333333343  0.666666687  0.792101383
     0.666666687  0.000000000  0.792101383
     0.666666687  0.333333343  0.792101383
     0.666666687  0.666666687  0.792101383
     0.166666672  0.000000000  0.957898617
     0.166666672  0.333333343  0.957898617
     0.166666672  0.666666687  0.957898617
     0.500000000  0.000000000  0.957898617
     0.500000000  0.333333343  0.957898617
     0.500000000  0.666666687  0.957898617
     0.833333313  0.000000000  0.957898617
     0.833333313  0.333333343  0.957898617
     0.833333313  0.666666687  0.957898617
     0.000000000  0.000000000  0.207898602
     0.000000000  0.333333343  0.207898602
     0.000000000  0.666666687  0.207898602
     0.333333343  0.000000000  0.207898602
     0.333333343  0.333333343  0.207898602
     0.333333343  0.666666687  0.207898602
     0.666666687  0.000000000  0.207898602
     0.666666687  0.333333343  0.207898602
     0.666666687  0.666666687  0.207898602
     0.000000000  0.166666672  0.042101406
     0.000000000  0.500000000  0.042101406
     0.000000000  0.833333313  0.042101406
     0.333333343  0.166666672  0.042101406
     0.333333343  0.500000000  0.042101406
     0.333333343  0.833333313  0.042101406
     0.666666687  0.166666672  0.042101406
     0.666666687  0.500000000  0.042101406
     0.666666687  0.833333313  0.042101406
     0.166666672  0.166666672  0.292101413
     0.166666672  0.500000000  0.292101413
     0.166666672  0.833333313  0.292101413
     0.500000000  0.166666672  0.292101413
     0.500000000  0.500000000  0.292101413
     0.500000000  0.833333313  0.292101413
     0.833333313  0.166666672  0.292101413
     0.833333313  0.500000000  0.292101413
     0.833333313  0.833333313  0.292101413

  ion indices of the primitive-cell ions
   primitive index   ion index
                 1           1
                 2           2
                 3           3
                 4           4
                 5           5
                 6           6
                 7           7
                 8           8
                 9           9
                10          10
                11          11
                12          12
                13          13
                14          14
                15          15
                16          16
                17          17
                18          18
                19          19
                20          20
                21          21
                22          22
                23          23
                24          24
                25          25
                26          26
                27          27
                28          28
                29          29
                30          30
                31          31
                32          32
                33          33
                34          34
                35          35
                36          36
                37          37
                38          38
                39          39
                40          40
                41          41
                42          42
                43          43
                44          44
                45          45
                46          46
                47          47
                48          48
                49          49
                50          50
                51          51
                52          52
                53          53
                54          54
                55          55
                56          56
                57          57
                58          58
                59          59
                60          60
                61          61
                62          62
                63          63
                64          64
                65          65
                66          66
                67          67
                68          68
                69          69
                70          70
                71          71
                72          72
                73          73
                74          74
                75          75
                76          76
                77          77
                78          78
                79          79
                80          80
                81          81
                82          82
                83          83
                84          84
                85          85
                86          86
                87          87
                88          88
                89          89
                90          90
                91          91
                92          92
                93          93
                94          94
                95          95
                96          96
                97          97
                98          98
                99          99
               100         100
               101         101
               102         102
               103         103
               104         104
               105         105
               106         106
               107         107
               108         108

----------------------------------------------------------------------------------------



 KPOINTS: K-Points

Automatic generation of k-mesh.
 Grid dimensions read from file:
 generate k-points for:    2    2    2

 Generating k-lattice:

  Cartesian coordinates                     Fractional coordinates (reciprocal lattice)
     0.043948922  0.000000000  0.000000000     0.500000000  0.000000000  0.000000000
     0.000000000  0.043948922  0.000000000     0.000000000  0.500000000  0.000000000
     0.000000000  0.000000000  0.052058529     0.000000000  0.000000000  0.500000000

  Length of vectors
     0.043948922  0.043948922  0.052058529

  Shift w.r.t. Gamma in fractional coordinates (k-lattice)
     0.500000000  0.500000000  0.500000000


 Subroutine IBZKPT returns following result:
 ===========================================

 Found      4 irreducible k-points:

 Following reciprocal coordinates:
            Coordinates               Weight
  0.250000  0.250000  0.250000      2.000000
 -0.250000  0.250000  0.250000      2.000000
 -0.250000 -0.250000  0.250000      2.000000
  0.250000 -0.250000  0.250000      2.000000

 Following cartesian coordinates:
            Coordinates               Weight
  0.021974  0.021974  0.026029      2.000000
 -0.021974  0.021974  0.026029      2.000000
 -0.021974 -0.021974  0.026029      2.000000
  0.021974 -0.021974  0.026029      2.000000


 Subroutine IBZKPT_HF returns following result:
 ==============================================

 Found      8 k-points in 1st BZ
 the following      8 k-points will be used (e.g. in the exchange kernel)
 Following reciprocal coordinates:   # in IRBZ
  0.250000  0.250000  0.250000    0.12500000   1 t-inv F
 -0.250000  0.250000  0.250000    0.12500000   2 t-inv F
 -0.250000 -0.250000  0.250000    0.12500000   3 t-inv F
  0.250000 -0.250000  0.250000    0.12500000   4 t-inv F
 -0.250000 -0.250000 -0.250000    0.12500000   1 t-inv T
  0.250000 -0.250000 -0.250000    0.12500000   2 t-inv T
  0.250000  0.250000 -0.250000    0.12500000   3 t-inv T
 -0.250000  0.250000 -0.250000    0.12500000   4 t-inv T


--------------------------------------------------------------------------------------------------------




 Dimension of arrays:
   k-points           NKPTS =      4   k-points in BZ     NKDIM =      4   number of bands    NBANDS=    476
   number of dos      NEDOS =    301   number of ions     NIONS =    108
   non local maximal  LDIM  =      6   non local SUM 2l+1 LMDIM =     18
   total plane-waves  NPLWV = 150528
   max r-space proj   IRMAX =   1791   max aug-charges    IRDMAX=   4900
   dimension x,y,z NGX =    56 NGY =   56 NGZ =   48
   dimension x,y,z NGXF=   112 NGYF=  112 NGZF=   96
   support grid    NGXF=   112 NGYF=  112 NGZF=   96
   ions per type =              36  72
   NGX,Y,Z   is equivalent  to a cutoff of   8.18,  8.18,  8.31 a.u.
   NGXF,Y,Z  is equivalent  to a cutoff of  16.37, 16.37, 16.62 a.u.

 SYSTEM =  unknown system
 POSCAR =  Ti4 O8

 Startparameter for this run:
   NWRITE =      2    write-flag & timer
   PREC   = normal    normal or accurate (medium, high low for compatibility)
   ISTART =      0    job   : 0-new  1-cont  2-samecut
   ICHARG =      2    charge: 1-file 2-atom 10-const
   ISPIN  =      1    spin polarized calculation?
   LNONCOLLINEAR =      F non collinear calculations
   LSORBIT =      F    spin-orbit coupling
   INIWAV =      1    electr: 0-lowe 1-rand  2-diag
   LASPH  =      F    aspherical Exc in radial PAW
 Electronic Relaxation 1
   ENCUT  =  400.0 eV  29.40 Ry    5.42 a.u.  18.55 18.55 15.66*2*pi/ulx,y,z
   ENINI  =  400.0     initial cutoff
   ENAUG  =  605.4 eV  augmentation charge cutoff
   NELM   =     80;   NELMIN=  4; NELMDL= -5     # of ELM steps
   EDIFF  = 0.1E-06   stopping-criterion for ELM
   LREAL  =      T    real-space projection
   NLSPLINE    = F    spline interpolate recip. space projectors
   LCOMPAT=      F    compatible to vasp.4.4
   GGA_COMPAT  = T    GGA compatible to vasp.4.4-vasp.4.6
   LMAXPAW     = -100 max onsite density
   LMAXMIX     =    2 max onsite mixed and CHGCAR
   VOSKOWN=      0    Vosko Wilk Nusair interpolation
   ROPT   =   -0.00050  -0.00050
 Ionic relaxation
   EDIFFG = 0.1E-05   stopping-criterion for IOM
   NSW    =      0    number of steps for IOM
   NBLOCK =      1;   KBLOCK =      1    inner block; outer block
   IBRION =     -1    ionic relax: 0-MD 1-quasi-New 2-CG
   NFREE  =      0    steps in history (QN), initial steepest desc. (CG)
   ISIF   =      2    stress and relaxation
   IWAVPR =     10    prediction:  0-non 1-charg 2-wave 3-comb
   ISYM   =      0    0-nonsym 1-usesym 2-fastsym
   LCORR  =      T    Harris-Foulkes like correction to forces

   POTIM  = 0.5000    time-step for ionic-motion
   TEIN   =    0.0    initial temperature
   TEBEG  =    0.0;   TEEND  =   0.0 temperature during run
   SMASS  =  -3.00    Nose mass-parameter (am)
   estimated Nose-frequenzy (Omega)   =  0.10E-29 period in steps = 0.13E+47 mass=  -0.296E-26a.u.
   SCALEE = 1.0000    scale energy and forces
   NPACO  =    256;   APACO  = 10.0  distance and # of slots for P.C.
   PSTRESS=    0.0 pullay stress

  Mass of Ions in am
   POMASS =  47.88 16.00
  Ionic Valenz
   ZVAL   =  10.00  6.00
  Atomic Wigner-Seitz radii
   RWIGS  =  -1.00 -1.00
  virtual crystal weights
   VCA    =   1.00  1.00
   NELECT =     792.0000    total number of electrons
   NUPDOWN=      -1.0000    fix difference up-down

 DOS related values:
   EMIN   =  10.00;   EMAX   =-10.00  energy-range for DOS
   EFERMI =   0.00
   ISMEAR =     0;   SIGMA  =   0.10  broadening in eV -4-tet -1-fermi 0-gaus

 Electronic relaxation 2 (details)
   IALGO  =     38    algorithm
   LDIAG  =      T    sub-space diagonalisation (order eigenvalues)
   LSUBROT=      F    optimize rotation matrix (better conditioning)
   TURBO    =      0    0=normal 1=particle mesh
   IRESTART =      0    0=no restart 2=restart with 2 vectors
   NREBOOT  =      0    no. of reboots
   NMIN     =      0    reboot dimension
   EREF     =   0.00    reference energy to select bands
   IMIX   =      4    mixing-type and parameters
     AMIX     =   0.40;   BMIX     =  1.00
     AMIX_MAG =   1.60;   BMIX_MAG =  1.00
     AMIN     =   0.10
     WC   =   100.;   INIMIX=   1;  MIXPRE=   1;  MAXMIX= -45

 Intra band minimization:
   WEIMIN = 0.0000     energy-eigenvalue tresh-hold
   EBREAK =  0.53E-10  absolut break condition
   DEPER  =   0.30     relativ break condition

   TIME   =   0.40     timestep for ELM

  volume/ion in A,a.u.               =      11.51        77.68
  Fermi-wavevector in a.u.,A,eV,Ry     =   1.408670  2.662001 26.998745  1.984352
  Thomas-Fermi vector in A             =   2.530804

 Write flags
   LWAVE        =      F    write WAVECAR
   LDOWNSAMPLE  =      F    k-point downsampling of WAVECAR
   LCHARG       =      F    write CHGCAR
   LVTOT        =      F    write LOCPOT, total local potential
   LVHAR        =      F    write LOCPOT, Hartree potential only
   LELF         =      F    write electronic localiz. function (ELF)
   LORBIT       =      0    0 simple, 1 ext, 2 COOP (PROOUT), +10 PAW based schemes


 Dipole corrections
   LMONO  =      F    monopole corrections only (constant potential shift)
   LDIPOL =      F    correct potential (dipole corrections)
   IDIPOL =      0    1-x, 2-y, 3-z, 4-all directions
   EPSILON=  1.0000000 bulk dielectric constant

 Exchange correlation treatment:
   GGA     =    --    GGA type
   LEXCH   =     8    internal setting for exchange type
   LIBXC   =     F    Libxc
   VOSKOWN =     0    Vosko Wilk Nusair interpolation
   LHFCALC =     F    Hartree Fock is set to
   LHFONE  =     F    Hartree Fock one center treatment
   AEXX    =    0.0000 exact exchange contribution

 Linear response parameters
   LEPSILON=     T    determine dielectric tensor
   LRPA    =     F    only Hartree local field effects (RPA)
   LNABLA  =     F    use nabla operator in PAW spheres
   LVEL    =     F    velocity operator in full k-point grid
   CSHIFT  =0.1000    complex shift for real part using Kramers Kronig
   OMEGAMAX=  -1.0    maximum frequency
   DEG_THRESHOLD= 0.2000000E-02 threshold for treating states as degnerate
   RTIME   =   -0.100 relaxation time in fs
  (WPLASMAI=    0.000 imaginary part of plasma frequency in eV, 0.658/RTIME)
   DFIELD  = 0.0000000 0.0000000 0.0000000 field for delta impulse in time

  Optional k-point grid parameters
   LKPOINTS_OPT  =     F    use optional k-point grid
   KPOINTS_OPT_MODE=     1    mode for optional k-point grid

 Orbital magnetization related:
   ORBITALMAG=     F  switch on orbital magnetization
   LCHIMAG   =     F  perturbation theory with respect to B field
   DQ        =  0.001000  dq finite difference perturbation B field
   LLRAUG    =     F  two centre corrections for induced B field

 PEAD related settings:
   LPEAD      =     T    switch on PEAD
   IPEAD      =     4    finite difference order for dpsi/dk
   LCALCPOL   =     F    calculate macroscopic polarization
   LCALCEPS   =     F    calculate dielectric tensor
   EFIELD_PEAD=    0.0000    0.0000    0.0000
   SKIP_EDOTP =     F
   LRPA       =     F
   SKIP_SCF   =     F


--------------------------------------------------------------------------------------------------------


 Static calculation
 charge density and potential will be updated during run
 non-spin polarized calculation
 Variant of blocked Davidson
 Davidson routine will perform the subspace rotation
 perform sub-space diagonalisation
    after iterative eigenvector-optimisation
 modified Broyden-mixing scheme, WC =      100.0
 initial mixing is a Kerker type mixing with AMIX =  0.4000 and BMIX =      1.0000
 Hartree-type preconditioning will be used
 using additional bands           80
 real space projection scheme for non local part
 use partial core corrections
 calculate Harris-corrections to forces
   (improved forces if not selfconsistent)
 use gradient corrections
 use of overlap-Matrix (Vanderbilt PP)
 Gauss-broadening in eV      SIGMA  =   0.10


--------------------------------------------------------------------------------------------------------


  energy-cutoff  :      400.00
  volume of cell :     1243.14
      direct lattice vectors                 reciprocal lattice vectors
    11.376843452  0.000000000  0.000000000     0.087897843  0.000000000  0.000000000
     0.000000000 11.376843452  0.000000000     0.000000000  0.087897843  0.000000000
     0.000000000  0.000000000  9.604574204     0.000000000  0.000000000  0.104117057

  length of vectors
    11.376843452 11.376843452  9.604574204     0.087897843  0.087897843  0.104117057



 k-points in units of 2pi/SCALE and weight: K-Points
   0.02197446  0.02197446  0.02602926       0.250
  -0.02197446  0.02197446  0.02602926       0.250
  -0.02197446 -0.02197446  0.02602926       0.250
   0.02197446 -0.02197446  0.02602926       0.250

 k-points in reciprocal lattice and weights: K-Points
   0.25000000  0.25000000  0.25000000       0.250
  -0.25000000  0.25000000  0.25000000       0.250
  -0.25000000 -0.25000000  0.25000000       0.250
   0.25000000 -0.25000000  0.25000000       0.250

 position of ions in fractional coordinates (direct lattice)
   0.16666667  0.16666667  0.50000000
   0.16666667  0.50000000  0.50000000
   0.16666667  0.83333331  0.50000000
   0.50000000  0.16666667  0.50000000
   0.50000000  0.50000000  0.50000000
   0.50000000  0.83333331  0.50000000
   0.83333331  0.16666667  0.50000000
   0.83333331  0.50000000  0.50000000
   0.83333331  0.83333331  0.50000000
   0.16666667  0.00000000  0.75000000
   0.16666667  0.33333334  0.75000000
   0.16666667  0.66666669  0.75000000
   0.50000000  0.00000000  0.75000000
   0.50000000  0.33333334  0.75000000
   0.50000000  0.66666669  0.75000000
   0.83333331  0.00000000  0.75000000
   0.83333331  0.33333334  0.75000000
   0.83333331  0.66666669  0.75000000
   0.00000000  0.00000000  0.00000000
   0.00000000  0.33333334  0.00000000
   0.00000000  0.66666669  0.00000000
   0.33333334  0.00000000  0.00000000
   0.33333334  0.33333334  0.00000000
   0.33333334  0.66666669  0.00000000
   0.66666669  0.00000000  0.00000000
   0.66666669  0.33333334  0.00000000
   0.66666669  0.66666669  0.00000000
   0.00000000  0.16666667  0.25000000
   0.00000000  0.50000000  0.25000000
   0.00000000  0.83333331  0.25000000
   0.33333334  0.16666667  0.25000000
   0.33333334  0.50000000  0.25000000
   0.33333334  0.83333331  0.25000000
   0.66666669  0.16666667  0.25000000
   0.66666669  0.50000000  0.25000000
   0.66666669  0.83333331  0.25000000
   0.00000000  0.16666667  0.45789859
   0.00000000  0.50000000  0.45789859
   0.00000000  0.83333331  0.45789859
   0.33333334  0.16666667  0.45789859
   0.33333334  0.50000000  0.45789859
   0.33333334  0.83333331  0.45789859
   0.68424626  0.16666667  0.45789859
   0.66666669  0.50000000  0.45789859
   0.66666669  0.83333331  0.45789859
   0.16666667  0.16666667  0.70789862
   0.16666667  0.50000000  0.70789862
   0.16666667  0.83333331  0.70789862
   0.50000000  0.16666667  0.70789862
   0.50000000  0.50000000  0.70789862
   0.50000000  0.83333331  0.70789862
   0.83333331  0.16666667  0.70789862
   0.83333331  0.50000000  0.70789862
   0.83333331  0.83333331  0.70789862
   0.16666667  0.00000000  0.54210138
   0.16666667  0.33333334  0.54210138
   0.16666667  0.66666669  0.54210138
   0.50000000  0.00000000  0.54210138
   0.50000000  0.33333334  0.54210138
   0.50000000  0.66666669  0.54210138
   0.83333331  0.00000000  0.54210138
   0.83333331  0.33333334  0.54210138
   0.83333331  0.66666669  0.54210138
   0.00000000  0.00000000  0.79210138
   0.00000000  0.33333334  0.79210138
   0.00000000  0.66666669  0.79210138
   0.33333334  0.00000000  0.79210138
   0.33333334  0.33333334  0.79210138
   0.33333334  0.66666669  0.79210138
   0.66666669  0.00000000  0.79210138
   0.66666669  0.33333334  0.79210138
   0.66666669  0.66666669  0.79210138
   0.16666667  0.00000000  0.95789862
   0.16666667  0.33333334  0.95789862
   0.16666667  0.66666669  0.95789862
   0.50000000  0.00000000  0.95789862
   0.50000000  0.33333334  0.95789862
   0.50000000  0.66666669  0.95789862
   0.83333331  0.00000000  0.95789862
   0.83333331  0.33333334  0.95789862
   0.83333331  0.66666669  0.95789862
   0.00000000  0.00000000  0.20789860
   0.00000000  0.33333334  0.20789860
   0.00000000  0.66666669  0.20789860
   0.33333334  0.00000000  0.20789860
   0.33333334  0.33333334  0.20789860
   0.33333334  0.66666669  0.20789860
   0.66666669  0.00000000  0.20789860
   0.66666669  0.33333334  0.20789860
   0.66666669  0.66666669  0.20789860
   0.00000000  0.16666667  0.04210141
   0.00000000  0.50000000  0.04210141
   0.00000000  0.83333331  0.04210141
   0.33333334  0.16666667  0.04210141
   0.33333334  0.50000000  0.04210141
   0.33333334  0.83333331  0.04210141
   0.66666669  0.16666667  0.04210141
   0.66666669  0.50000000  0.04210141
   0.66666669  0.83333331  0.04210141
   0.16666667  0.16666667  0.29210141
   0.16666667  0.50000000  0.29210141
   0.16666667  0.83333331  0.29210141
   0.50000000  0.16666667  0.29210141
   0.50000000  0.50000000  0.29210141
   0.50000000  0.83333331  0.29210141
   0.83333331  0.16666667  0.29210141
   0.83333331  0.50000000  0.29210141
   0.83333331  0.83333331  0.29210141

 position of ions in cartesian coordinates  (Angst):
   1.89614063  1.89614063  4.80228710
   1.89614063  5.68842173  4.80228710
   1.89614063  9.48070265  4.80228710
   5.68842173  1.89614063  4.80228710
   5.68842173  5.68842173  4.80228710
   5.68842173  9.48070265  4.80228710
   9.48070265  1.89614063  4.80228710
   9.48070265  5.68842173  4.80228710
   9.48070265  9.48070265  4.80228710
   1.89614063  0.00000000  7.20343065
   1.89614063  3.79228126  7.20343065
   1.89614063  7.58456253  7.20343065
   5.68842173  0.00000000  7.20343065
   5.68842173  3.79228126  7.20343065
   5.68842173  7.58456253  7.20343065
   9.48070265  0.00000000  7.20343065
   9.48070265  3.79228126  7.20343065
   9.48070265  7.58456253  7.20343065
   0.00000000  0.00000000  0.00000000
   0.00000000  3.79228126  0.00000000
   0.00000000  7.58456253  0.00000000
   3.79228126  0.00000000  0.00000000
   3.79228126  3.79228126  0.00000000
   3.79228126  7.58456253  0.00000000
   7.58456253  0.00000000  0.00000000
   7.58456253  3.79228126  0.00000000
   7.58456253  7.58456253  0.00000000
   0.00000000  1.89614063  2.40114355
   0.00000000  5.68842173  2.40114355
   0.00000000  9.48070265  2.40114355
   3.79228126  1.89614063  2.40114355
   3.79228126  5.68842173  2.40114355
   3.79228126  9.48070265  2.40114355
   7.58456253  1.89614063  2.40114355
   7.58456253  5.68842173  2.40114355
   7.58456253  9.48070265  2.40114355
   0.00000000  1.89614063  4.39792096
   0.00000000  5.68842173  4.39792096
   0.00000000  9.48070265  4.39792096
   3.79228126  1.89614063  4.39792096
   3.79228126  5.68842173  4.39792096
   3.79228126  9.48070265  4.39792096
   7.78456253  1.89614063  4.39792096
   7.58456253  5.68842173  4.39792096
   7.58456253  9.48070265  4.39792096
   1.89614063  1.89614063  6.79906479
   1.89614063  5.68842173  6.79906479
   1.89614063  9.48070265  6.79906479
   5.68842173  1.89614063  6.79906479
   5.68842173  5.68842173  6.79906479
   5.68842173  9.48070265  6.79906479
   9.48070265  1.89614063  6.79906479
   9.48070265  5.68842173  6.79906479
   9.48070265  9.48070265  6.79906479
   1.89614063  0.00000000  5.20665296
   1.89614063  3.79228126  5.20665296
   1.89614063  7.58456253  5.20665296
   5.68842173  0.00000000  5.20665296
   5.68842173  3.79228126  5.20665296
   5.68842173  7.58456253  5.20665296
   9.48070265  0.00000000  5.20665296
   9.48070265  3.79228126  5.20665296
   9.48070265  7.58456253  5.20665296
   0.00000000  0.00000000  7.60779651
   0.00000000  3.79228126  7.60779651
   0.00000000  7.58456253  7.60779651
   3.79228126  0.00000000  7.60779651
   3.79228126  3.79228126  7.60779651
   3.79228126  7.58456253  7.60779651
   7.58456253  0.00000000  7.60779651
   7.58456253  3.79228126  7.60779651
   7.58456253  7.58456253  7.60779651
   1.89614063  0.00000000  9.20020834
   1.89614063  3.79228126  9.20020834
   1.89614063  7.58456253  9.20020834
   5.68842173  0.00000000  9.20020834
   5.68842173  3.79228126  9.20020834
   5.68842173  7.58456253  9.20020834
   9.48070265  0.00000000  9.20020834
   9.48070265  3.79228126  9.20020834
   9.48070265  7.58456253  9.20020834
   0.00000000  0.00000000  1.99677755
   0.00000000  3.79228126  1.99677755
   0.00000000  7.58456253  1.99677755
   3.79228126  0.00000000  1.99677755
   3.79228126  3.79228126  1.99677755
   3.79228126  7.58456253  1.99677755
   7.58456253  0.00000000  1.99677755
   7.58456253  3.79228126  1.99677755
   7.58456253  7.58456253  1.99677755
   0.00000000  1.89614063  0.40436607
   0.00000000  5.68842173  0.40436607
   0.00000000  9.48070265  0.40436607
   3.79228126  1.89614063  0.40436607
   3.79228126  5.68842173  0.40436607
   3.79228126  9.48070265  0.40436607
   7.58456253  1.89614063  0.40436607
   7.58456253  5.68842173  0.40436607
   7.58456253  9.48070265  0.40436607
   1.89614063  1.89614063  2.80550970
   1.89614063  5.68842173  2.80550970
   1.89614063  9.48070265  2.80550970
   5.68842173  1.89614063  2.80550970
   5.68842173  5.68842173  2.80550970
   5.68842173  9.48070265  2.80550970
   9.48070265  1.89614063  2.80550970
   9.48070265  5.68842173  2.80550970
   9.48070265  9.48070265  2.80550970



--------------------------------------------------------------------------------------------------------


 k-point   1 :   0.2500 0.2500 0.2500  plane waves:   22590
 k-point   2 :  -0.2500 0.2500 0.2500  plane waves:   22590
 k-point   3 :  -0.2500-0.2500 0.2500  plane waves:   22590
 k-point   4 :   0.2500-0.2500 0.2500  plane waves:   22590

 maximum and minimum number of plane-waves per node :     22590    22590

 maximum number of plane-waves:     22590
 maximum index in each direction:
   IXMAX=   18   IYMAX=   18   IZMAX=   15
   IXMIN=  -18   IYMIN=  -18   IZMIN=  -15


 serial   3D FFT for wavefunctions
 parallel 3D FFT for charge:
    minimum data exchange during FFTs selected (reduces bandwidth)


 total amount of memory used by VASP MPI-rank0   266725. kBytes
=======================================================================

   base      :      30000. kBytes
   nonlr-proj:      19556. kBytes
   fftplans  :      10927. kBytes
   grid      :      23181. kBytes
   one-center:       1679. kBytes
   wavefun   :     181382. kBytes

     INWAV:  cpu time      0.0001: real time      0.0005
 Broyden mixing: mesh for mixing (old mesh)
   NGX = 37   NGY = 37   NGZ = 31
  (NGX  =112   NGY  =112   NGZ  = 96)
  gives a total of  42439 points

 initial charge density was supplied:
 charge density of overlapping atoms calculated
 number of electron     792.0000000 magnetization
 keeping initial charge density in first step


--------------------------------------------------------------------------------------------------------


 Maximum index for non-local projection operator         1743
 Maximum index for augmentation-charges         1189 (set IRDMAX)


--------------------------------------------------------------------------------------------------------


 First call to EWALD:  gamma=   0.165
 Maximum number of real-space cells 3x 3x 3
 Maximum number of reciprocal cells 3x 3x 3

    FEWALD:  cpu time      1.3928: real time      1.3996


--------------------------------------- Iteration      1(   1)  ---------------------------------------


    POTLOK:  cpu time      0.1583: real time      0.1607
    SETDIJ:  cpu time      0.0162: real time      0.0172
     EDDAV:  cpu time     11.5106: real time     11.6040
       DOS:  cpu time      0.0033: real time      0.0056
    --------------------------------------------
      LOOP:  cpu time     11.6884: real time     11.7877

 eigenvalue-minimisations  :  3824
 total energy-change (2. order) : 0.1156144E+05  (-0.3305599E+05)
 number of electron     792.0000000 magnetization
 augmentation part      792.0000000 magnetization

 Free energy of the ion-electron system (eV)
  ---------------------------------------------------
  alpha Z        PSCENC =      3563.47650690
  Ewald energy   TEWEN  =    -48577.80530547
  -Hartree energ DENC   =    -18849.81643499
  -exchange      EXHF   =         0.00000000
  -V(xc)+E(xc)   XCENC  =      3286.95546135
  PAW double counting   =     54431.09303398   -54537.79254336
  entropy T*S    EENTRO =        -0.14558048
  eigenvalues    EBANDS =      3589.07938845
  atomic energy  EATOM  =     68656.39924158
  Solvation  Ediel_sol  =         0.00000000
  ---------------------------------------------------
  free energy    TOTEN  =     11561.44376796 eV

  energy without entropy =    11561.58934844  energy(sigma->0) =    11561.51655820


--------------------------------------------------------------------------------------------------------




--------------------------------------- Iteration      1(   2)  ---------------------------------------


     EDDAV:  cpu time     11.5732: real time     11.6653
       DOS:  cpu time      0.0010: real time      0.0010
    --------------------------------------------
      LOOP:  cpu time     11.5741: real time     11.6663

 eigenvalue-minimisations  :  3808
 total energy-change (2. order) :-0.9988153E+04  (-0.9557655E+04)
 number of electron     792.0000000 magnetization
 augmentation part      792.0000000 magnetization

 Free energy of the ion-electron system (eV)
  ---------------------------------------------------
  alpha Z        PSCENC =      3563.47650690
  Ewald energy   TEWEN  =    -48577.80530547
  -Hartree energ DENC   =    -18849.81643499
  -exchange      EXHF   =         0.00000000
  -V(xc)+E(xc)   XCENC  =      3286.95546135
  PAW double counting   =     54431.09303398   -54537.79254336
  entropy T*S    EENTRO =        -0.29012413
  eigenvalues    EBANDS =     -6398.92940760
  atomic energy  EATOM  =     68656.39924158
  Solvation  Ediel_sol  =         0.00000000
  ---------------------------------------------------
  free energy    TOTEN  =      1573.29042825 eV

  energy without entropy =     1573.58055239  energy(sigma->0) =     1573.43549032


--------------------------------------------------------------------------------------------------------




--------------------------------------- Iteration      1(   3)  ---------------------------------------


     EDDAV:  cpu time     13.0371: real time     13.1385
       DOS:  cpu time      0.0006: real time      0.0006
    --------------------------------------------
      LOOP:  cpu time     13.0377: real time     13.1391

 eigenvalue-minimisations  :  4416
 total energy-change (2. order) :-0.2642120E+04  (-0.2570457E+04)
 number of electron     792.0000000 magnetization
 augmentation part      792.0000000 magnetization

 Free energy of the ion-electron system (eV)
  ---------------------------------------------------
  alpha Z        PSCENC =      3563.47650690
  Ewald energy   TEWEN  =    -48577.80530547
  -Hartree energ DENC   =    -18849.81643499
  -exchange      EXHF   =         0.00000000
  -V(xc)+E(xc)   XCENC  =      3286.95546135
  PAW double counting   =     54431.09303398   -54537.79254336
  entropy T*S    EENTRO =        -0.00000000
  eigenvalues    EBANDS =     -9041.33908704
  atomic energy  EATOM  =     68656.39924158
  Solvation  Ediel_sol  =         0.00000000
  ---------------------------------------------------
  free energy    TOTEN  =     -1068.82912705 eV

  energy without entropy =    -1068.82912705  energy(sigma->0) =    -1068.82912705


--------------------------------------------------------------------------------------------------------




--------------------------------------- Iteration      1(   4)  ---------------------------------------


     EDDAV:  cpu time     14.4137: real time     14.5244
       DOS:  cpu time      0.0011: real time      0.0011
    --------------------------------------------
      LOOP:  cpu time     14.4147: real time     14.5255

 eigenvalue-minimisations  :  5032
 total energy-change (2. order) :-0.2039913E+03  (-0.2028932E+03)
 number of electron     792.0000000 magnetization
 augmentation part      792.0000000 magnetization

 Free energy of the ion-electron system (eV)
  ---------------------------------------------------
  alpha Z        PSCENC =      3563.47650690
  Ewald energy   TEWEN  =    -48577.80530547
  -Hartree energ DENC   =    -18849.81643499
  -exchange      EXHF   =         0.00000000
  -V(xc)+E(xc)   XCENC  =      3286.95546135
  PAW double counting   =     54431.09303398   -54537.79254336
  entropy T*S    EENTRO =        -0.00000000
  eigenvalues    EBANDS =     -9245.33041364
  atomic energy  EATOM  =     68656.39924158
  Solvation  Ediel_sol  =         0.00000000
  ---------------------------------------------------
  free energy    TOTEN  =     -1272.82045365 eV

  energy without entropy =    -1272.82045365  energy(sigma->0) =    -1272.82045365


--------------------------------------------------------------------------------------------------------




--------------------------------------- Iteration      1(   5)  ---------------------------------------


     EDDAV:  cpu time     14.2791: real time     14.3898
       DOS:  cpu time      0.0009: real time      0.0009
    CHARGE:  cpu time      0.2091: real time      0.2170
    MIXING:  cpu time      0.0098: real time      0.0116
    --------------------------------------------
      LOOP:  cpu time     14.4988: real time     14.6193

 eigenvalue-minimisations  :  4976
 total energy-change (2. order) :-0.5397478E+01  (-0.5384810E+01)
 number of electron     792.0003048 magnetization
 augmentation part      202.2592964 magnetization

 Broyden mixing:
  rms(total) = 0.17288E+02    rms(broyden)= 0.17286E+02
  rms(prec ) = 0.19219E+02
  weight for this iteration     100.00

 Free energy of the ion-electron system (eV)
  ---------------------------------------------------
  alpha Z        PSCENC =      3563.47650690
  Ewald energy   TEWEN  =    -48577.80530547
  -Hartree energ DENC   =    -18849.81643499
  -exchange      EXHF   =         0.00000000
  -V(xc)+E(xc)   XCENC  =      3286.95546135
  PAW double counting   =     54431.09303398   -54537.79254336
  entropy T*S    EENTRO =        -0.00000000
  eigenvalues    EBANDS =     -9250.72789195
  atomic energy  EATOM  =     68656.39924158
  Solvation  Ediel_sol  =         0.00000000
  ---------------------------------------------------
  free energy    TOTEN  =     -1278.21793196 eV

  energy without entropy =    -1278.21793196  energy(sigma->0) =    -1278.21793196


--------------------------------------------------------------------------------------------------------




--------------------------------------- Iteration      1(   6)  ---------------------------------------


    POTLOK:  cpu time      0.1398: real time      0.1410
    SETDIJ:  cpu time      0.0405: real time      0.0407
     EDDAV:  cpu time     14.4997: real time     14.6094
       DOS:  cpu time      0.0014: real time      0.0014
    CHARGE:  cpu time      0.2080: real time      0.2107
    MIXING:  cpu time      0.0111: real time      0.0129
    --------------------------------------------
      LOOP:  cpu time     14.9007: real time     15.0162

 eigenvalue-minimisations  :  4976
 total energy-change (2. order) : 0.3024104E+03  (-0.1972073E+03)
 number of electron     792.0002457 magnetization
 augmentation part      214.1222147 magnetization

 Broyden mixing:
  rms(total) = 0.53251E+01    rms(broyden)= 0.53201E+01
  rms(prec ) = 0.58488E+01
  weight for this iteration     100.00

 eigenvalues of (default mixing * dielectric matrix)
  average eigenvalue GAMMA=   0.9673
  0.9673

 Free energy of the ion-electron system (eV)
  ---------------------------------------------------
  alpha Z        PSCENC =      3563.47650690
  Ewald energy   TEWEN  =    -48577.80530547
  -Hartree energ DENC   =    -19075.75529107
  -exchange      EXHF   =         0.00000000
  -V(xc)+E(xc)   XCENC  =      3337.98438383
  PAW double counting   =     68300.86607319   -68533.20767963
  entropy T*S    EENTRO =        -0.00000000
  eigenvalues    EBANDS =     -8647.76546431
  atomic energy  EATOM  =     68656.39924158
  Solvation  Ediel_sol  =         0.00000000
  ---------------------------------------------------
  free energy    TOTEN  =      -975.80753499 eV

  energy without entropy =     -975.80753499  energy(sigma->0) =     -975.80753499


--------------------------------------------------------------------------------------------------------




--------------------------------------- Iteration      1(   7)  ---------------------------------------


    POTLOK:  cpu time      0.1397: real time      0.1412
    SETDIJ:  cpu time      0.0497: real time      0.0499
     EDDAV:  cpu time     15.3065: real time     15.4226
       DOS:  cpu time      0.0012: real time      0.0012
    CHARGE:  cpu time      0.2079: real time      0.2105
    MIXING:  cpu time      0.0128: real time      0.0129
    --------------------------------------------
      LOOP:  cpu time     15.7176: real time     15.8382

 eigenvalue-minimisations  :  5328
 total energy-change (2. order) : 0.4125728E+01  (-0.2860510E+02)
 number of electron     792.0002647 magnetization
 augmentation part      207.3484638 magnetization

 Broyden mixing:
  rms(total) = 0.46067E+01    rms(broyden)= 0.46065E+01
  rms(prec ) = 0.48007E+01
  weight for this iteration     100.00

 eigenvalues of (default mixing * dielectric matrix)
  average eigenvalue GAMMA=   1.8264
  0.7373  2.9156

 Free energy of the ion-electron system (eV)
  ---------------------------------------------------
  alpha Z        PSCENC =      3563.47650690
  Ewald energy   TEWEN  =    -48577.80530547
  -Hartree energ DENC   =    -18919.17834706
  -exchange      EXHF   =         0.00000000
  -V(xc)+E(xc)   XCENC  =      3318.81362903
  PAW double counting   =     75346.68973039   -75590.08704547
  entropy T*S    EENTRO =        -0.00000000
  eigenvalues    EBANDS =     -8769.99021645
  atomic energy  EATOM  =     68656.39924158
  Solvation  Ediel_sol  =         0.00000000
  ---------------------------------------------------
  free energy    TOTEN  =      -971.68180654 eV

  energy without entropy =     -971.68180654  energy(sigma->0) =     -971.68180654


--------------------------------------------------------------------------------------------------------




--------------------------------------- Iteration      1(   8)  ---------------------------------------


    POTLOK:  cpu time      0.1444: real time      0.1461
    SETDIJ:  cpu time      0.0338: real time      0.0340
     EDDAV:  cpu time     14.5536: real time     14.6625
       DOS:  cpu time      0.0008: real time      0.0008
    CHARGE:  cpu time      0.2042: real time      0.2067
    MIXING:  cpu time      0.0113: real time      0.0114
    --------------------------------------------
      LOOP:  cpu time     14.9481: real time     15.0613

 eigenvalue-minimisations  :  5056
 total energy-change (2. order) : 0.9767913E-01  (-0.1082207E+02)
 number of electron     792.0002584 magnetization
 augmentation part      215.4787543 magnetization

 Broyden mixing:
  rms(total) = 0.32852E+01    rms(broyden)= 0.32850E+01
  rms(prec ) = 0.35931E+01
  weight for this iteration     100.00

 eigenvalues of (default mixing * dielectric matrix)
  average eigenvalue GAMMA=   1.2359
  2.2262  0.8990  0.5824

 Free energy of the ion-electron system (eV)
  ---------------------------------------------------
  alpha Z        PSCENC =      3563.47650690
  Ewald energy   TEWEN  =    -48577.80530547
  -Hartree energ DENC   =    -18549.41297315
  -exchange      EXHF   =         0.00000000
  -V(xc)+E(xc)   XCENC  =      3304.32534647
  PAW double counting   =     93718.98011355   -94033.57354237
  entropy T*S    EENTRO =        -0.00000000
  eigenvalues    EBANDS =     -9053.97351493
  atomic energy  EATOM  =     68656.39924158
  Solvation  Ediel_sol  =         0.00000000
  ---------------------------------------------------
  free energy    TOTEN  =      -971.58412742 eV

  energy without entropy =     -971.58412742  energy(sigma->0) =     -971.58412742


--------------------------------------------------------------------------------------------------------




--------------------------------------- Iteration      1(   9)  ---------------------------------------


    POTLOK:  cpu time      0.1393: real time      0.1404
    SETDIJ:  cpu time      0.0395: real time      0.0396
     EDDAV:  cpu time     14.9823: real time     15.0927
       DOS:  cpu time      0.0010: real time      0.0010
    CHARGE:  cpu time      0.2060: real time      0.2090
    MIXING:  cpu time      0.0139: real time      0.0140
    --------------------------------------------
      LOOP:  cpu time     15.3820: real time     15.4967

 eigenvalue-minimisations  :  5216
 total energy-change (2. order) : 0.5387675E+01  (-0.3209811E+01)
 number of electron     792.0002628 magnetization
 augmentation part      211.6535904 magnetization

 Broyden mixing:
  rms(total) = 0.38737E+00    rms(broyden)= 0.38683E+00
  rms(prec ) = 0.41777E+00
  weight for this iteration     100.00

 eigenvalues of (default mixing * dielectric matrix)
  average eigenvalue GAMMA=   1.0576
  2.1493  0.9000  0.5905  0.5905

 Free energy of the ion-electron system (eV)
  ---------------------------------------------------
  alpha Z        PSCENC =      3563.47650690
  Ewald energy   TEWEN  =    -48577.80530547
  -Hartree energ DENC   =    -18681.93560785
  -exchange      EXHF   =         0.00000000
  -V(xc)+E(xc)   XCENC  =      3308.78546027
  PAW double counting   =     88971.51747354   -89268.79929141
  entropy T*S    EENTRO =        -0.00000000
  eigenvalues    EBANDS =     -8937.83492976
  atomic energy  EATOM  =     68656.39924158
  Solvation  Ediel_sol  =         0.00000000
  ---------------------------------------------------
  free energy    TOTEN  =      -966.19645221 eV

  energy without entropy =     -966.19645221  energy(sigma->0) =     -966.19645221


--------------------------------------------------------------------------------------------------------




--------------------------------------- Iteration      1(  10)  ---------------------------------------


    POTLOK:  cpu time      0.1510: real time      0.1525
    SETDIJ:  cpu time      0.0305: real time      0.0306
     EDDAV:  cpu time     15.3429: real time     15.4560
       DOS:  cpu time      0.0005: real time      0.0005
    CHARGE:  cpu time      0.2057: real time      0.2088
    MIXING:  cpu time      0.0144: real time      0.0145
    --------------------------------------------
      LOOP:  cpu time     15.7450: real time     15.8631

 eigenvalue-minimisations  :  5368
 total energy-change (2. order) :-0.1016642E-01  (-0.9907887E-01)
 number of electron     792.0002627 magnetization
 augmentation part      211.4368100 magnetization

 Broyden mixing:
  rms(total) = 0.19064E+00    rms(broyden)= 0.19054E+00
  rms(prec ) = 0.21120E+00
  weight for this iteration     100.00

 eigenvalues of (default mixing * dielectric matrix)
  average eigenvalue GAMMA=   1.2126
  2.3674  1.2731  1.2731  0.6469  0.5022

 Free energy of the ion-electron system (eV)
  ---------------------------------------------------
  alpha Z        PSCENC =      3563.47650690
  Ewald energy   TEWEN  =    -48577.80530547
  -Hartree energ DENC   =    -18705.40583566
  -exchange      EXHF   =         0.00000000
  -V(xc)+E(xc)   XCENC  =      3310.16230425
  PAW double counting   =     88768.64714826   -89066.22925731
  entropy T*S    EENTRO =        -0.00000000
  eigenvalues    EBANDS =     -8915.45142119
  atomic energy  EATOM  =     68656.39924158
  Solvation  Ediel_sol  =         0.00000000
  ---------------------------------------------------
  free energy    TOTEN  =      -966.20661863 eV

  energy without entropy =     -966.20661863  energy(sigma->0) =     -966.20661863


--------------------------------------------------------------------------------------------------------




--------------------------------------- Iteration      1(  11)  ---------------------------------------


    POTLOK:  cpu time      0.1504: real time      0.1520
    SETDIJ:  cpu time      0.0336: real time      0.0338
     EDDAV:  cpu time     15.2607: real time     15.3734
       DOS:  cpu time      0.0006: real time      0.0006
    CHARGE:  cpu time      0.2052: real time      0.2063
    MIXING:  cpu time      0.0143: real time      0.0144
    --------------------------------------------
      LOOP:  cpu time     15.6648: real time     15.7805

 eigenvalue-minimisations  :  5344
 total energy-change (2. order) :-0.8287642E-01  (-0.8183444E-01)
 number of electron     792.0002614 magnetization
 augmentation part      211.6147673 magnetization

 Broyden mixing:
  rms(total) = 0.28284E+00    rms(broyden)= 0.28279E+00
  rms(prec ) = 0.33537E+00
  weight for this iteration     100.00

 eigenvalues of (default mixing * dielectric matrix)
  average eigenvalue GAMMA=   1.2199
  2.5087  1.8250  0.9148  0.9148  0.5782  0.5782

 Free energy of the ion-electron system (eV)
  ---------------------------------------------------
  alpha Z        PSCENC =      3563.47650690
  Ewald energy   TEWEN  =    -48577.80530547
  -Hartree energ DENC   =    -18744.85905216
  -exchange      EXHF   =         0.00000000
  -V(xc)+E(xc)   XCENC  =      3313.10432547
  PAW double counting   =     89281.21692522   -89583.27765593
  entropy T*S    EENTRO =        -0.00000000
  eigenvalues    EBANDS =     -8874.54448066
  atomic energy  EATOM  =     68656.39924158
  Solvation  Ediel_sol  =         0.00000000
  ---------------------------------------------------
  free energy    TOTEN  =      -966.28949504 eV

  energy without entropy =     -966.28949504  energy(sigma->0) =     -966.28949504


--------------------------------------------------------------------------------------------------------




--------------------------------------- Iteration      1(  12)  ---------------------------------------


    POTLOK:  cpu time      0.1455: real time      0.1471
    SETDIJ:  cpu time      0.0367: real time      0.0369
     EDDAV:  cpu time     15.0936: real time     15.2059
       DOS:  cpu time      0.0005: real time      0.0006
    CHARGE:  cpu time      0.2027: real time      0.2044
    MIXING:  cpu time      0.0133: real time      0.0134
    --------------------------------------------
      LOOP:  cpu time     15.4923: real time     15.6083

 eigenvalue-minimisations  :  5272
 total energy-change (2. order) : 0.8064764E-01  (-0.5119593E-01)
 number of electron     792.0002622 magnetization
 augmentation part      211.2446516 magnetization

 Broyden mixing:
  rms(total) = 0.29837E-01    rms(broyden)= 0.29666E-01
  rms(prec ) = 0.33259E-01
  weight for this iteration     100.00

 eigenvalues of (default mixing * dielectric matrix)
  average eigenvalue GAMMA=   1.1643
  2.5893  1.7937  0.9800  0.9800  0.6896  0.5588  0.5588

 Free energy of the ion-electron system (eV)
  ---------------------------------------------------
  alpha Z        PSCENC =      3563.47650690
  Ewald energy   TEWEN  =    -48577.80530547
  -Hartree energ DENC   =    -18750.47124173
  -exchange      EXHF   =         0.00000000
  -V(xc)+E(xc)   XCENC  =      3313.01588851
  PAW double counting   =     89334.93286111   -89636.81329614
  entropy T*S    EENTRO =        -0.00000000
  eigenvalues    EBANDS =     -8868.94350216
  atomic energy  EATOM  =     68656.39924158
  Solvation  Ediel_sol  =         0.00000000
  ---------------------------------------------------
  free energy    TOTEN  =      -966.20884740 eV

  energy without entropy =     -966.20884740  energy(sigma->0) =     -966.20884740


--------------------------------------------------------------------------------------------------------




--------------------------------------- Iteration      1(  13)  ---------------------------------------


    POTLOK:  cpu time      0.1450: real time      0.1466
    SETDIJ:  cpu time      0.0318: real time      0.0319
     EDDAV:  cpu time     14.3419: real time     14.4469
       DOS:  cpu time      0.0006: real time      0.0006
    CHARGE:  cpu time      0.2022: real time      0.2033
    MIXING:  cpu time      0.0136: real time      0.0137
    --------------------------------------------
      LOOP:  cpu time     14.7351: real time     14.8431

 eigenvalue-minimisations  :  5016
 total energy-change (2. order) :-0.2291116E-02  (-0.2211733E-02)
 number of electron     792.0002623 magnetization
 augmentation part      211.2277191 magnetization

 Broyden mixing:
  rms(total) = 0.22193E-01    rms(broyden)= 0.22156E-01
  rms(prec ) = 0.25815E-01
  weight for this iteration     100.00

 eigenvalues of (default mixing * dielectric matrix)
  average eigenvalue GAMMA=   1.1423
  2.5844  1.6758  1.3120  1.0493  0.6723  0.6723  0.5727  0.5991

 Free energy of the ion-electron system (eV)
  ---------------------------------------------------
  alpha Z        PSCENC =      3563.47650690
  Ewald energy   TEWEN  =    -48577.80530547
  -Hartree energ DENC   =    -18749.85338372
  -exchange      EXHF   =         0.00000000
  -V(xc)+E(xc)   XCENC  =      3312.94530147
  PAW double counting   =     89381.54567761   -89683.42872183
  entropy T*S    EENTRO =        -0.00000000
  eigenvalues    EBANDS =     -8869.49045506
  atomic energy  EATOM  =     68656.39924158
  Solvation  Ediel_sol  =         0.00000000
  ---------------------------------------------------
  free energy    TOTEN  =      -966.21113852 eV

  energy without entropy =     -966.21113852  energy(sigma->0) =     -966.21113852


--------------------------------------------------------------------------------------------------------




--------------------------------------- Iteration      1(  14)  ---------------------------------------


    POTLOK:  cpu time      0.1474: real time      0.1489
    SETDIJ:  cpu time      0.0308: real time      0.0309
     EDDAV:  cpu time     14.5794: real time     14.6882
       DOS:  cpu time      0.0005: real time      0.0005
    CHARGE:  cpu time      0.2031: real time      0.2042
    MIXING:  cpu time      0.0148: real time      0.0149
    --------------------------------------------
      LOOP:  cpu time     14.9760: real time     15.0877

 eigenvalue-minimisations  :  5056
 total energy-change (2. order) :-0.1136093E-03  (-0.1428561E-03)
 number of electron     792.0002622 magnetization
 augmentation part      211.2402681 magnetization

 Broyden mixing:
  rms(total) = 0.13593E-01    rms(broyden)= 0.13592E-01
  rms(prec ) = 0.16219E-01
  weight for this iteration     100.00

 eigenvalues of (default mixing * dielectric matrix)
  average eigenvalue GAMMA=   1.1660
  2.5741  1.8158  1.5486  1.0715  0.8638  0.8638  0.5608  0.5608  0.6350

 Free energy of the ion-electron system (eV)
  ---------------------------------------------------
  alpha Z        PSCENC =      3563.47650690
  Ewald energy   TEWEN  =    -48577.80530547
  -Hartree energ DENC   =    -18749.97017282
  -exchange      EXHF   =         0.00000000
  -V(xc)+E(xc)   XCENC  =      3312.95205295
  PAW double counting   =     89381.62561444   -89683.37906877
  entropy T*S    EENTRO =        -0.00000000
  eigenvalues    EBANDS =     -8869.51012093
  atomic energy  EATOM  =     68656.39924158
  Solvation  Ediel_sol  =         0.00000000
  ---------------------------------------------------
  free energy    TOTEN  =      -966.21125213 eV

  energy without entropy =     -966.21125213  energy(sigma->0) =     -966.21125213


--------------------------------------------------------------------------------------------------------




--------------------------------------- Iteration      1(  15)  ---------------------------------------


    POTLOK:  cpu time      0.1485: real time      0.1500
    SETDIJ:  cpu time      0.0335: real time      0.0336
     EDDAV:  cpu time     15.1881: real time     15.3012
       DOS:  cpu time      0.0005: real time      0.0005
    CHARGE:  cpu time      0.2015: real time      0.2026
    MIXING:  cpu time      0.0144: real time      0.0145
    --------------------------------------------
      LOOP:  cpu time     15.5866: real time     15.7025

 eigenvalue-minimisations  :  5320
 total energy-change (2. order) :-0.1285647E-03  (-0.9831901E-04)
 number of electron     792.0002622 magnetization
 augmentation part      211.2446469 magnetization

 Broyden mixing:
  rms(total) = 0.70423E-02    rms(broyden)= 0.70393E-02
  rms(prec ) = 0.84512E-02
  weight for this iteration     100.00

 eigenvalues of (default mixing * dielectric matrix)
  average eigenvalue GAMMA=   1.1841
  2.6023  2.3328  1.7800  0.8857  0.8857  0.8081  0.8081  0.5763  0.5763  0.5857

 Free energy of the ion-electron system (eV)
  ---------------------------------------------------
  alpha Z        PSCENC =      3563.47650690
  Ewald energy   TEWEN  =    -48577.80530547
  -Hartree energ DENC   =    -18750.84074182
  -exchange      EXHF   =         0.00000000
  -V(xc)+E(xc)   XCENC  =      3312.99926869
  PAW double counting   =     89365.82717622   -89667.44951825
  entropy T*S    EENTRO =        -0.00000000
  eigenvalues    EBANDS =     -8868.81800855
  atomic energy  EATOM  =     68656.39924158
  Solvation  Ediel_sol  =         0.00000000
  ---------------------------------------------------
  free energy    TOTEN  =      -966.21138069 eV

  energy without entropy =     -966.21138069  energy(sigma->0) =     -966.21138069


--------------------------------------------------------------------------------------------------------




--------------------------------------- Iteration      1(  16)  ---------------------------------------


    POTLOK:  cpu time      0.1485: real time      0.1496
    SETDIJ:  cpu time      0.0314: real time      0.0315
     EDDAV:  cpu time     15.2623: real time     15.3761
       DOS:  cpu time      0.0031: real time      0.0032
    CHARGE:  cpu time      0.2050: real time      0.2061
    MIXING:  cpu time      0.0150: real time      0.0151
    --------------------------------------------
      LOOP:  cpu time     15.6653: real time     15.7817

 eigenvalue-minimisations  :  5336
 total energy-change (2. order) :-0.3950910E-04  (-0.5464673E-04)
 number of electron     792.0002622 magnetization
 augmentation part      211.2552542 magnetization

 Broyden mixing:
  rms(total) = 0.34548E-02    rms(broyden)= 0.34522E-02
  rms(prec ) = 0.41047E-02
  weight for this iteration     100.00

 eigenvalues of (default mixing * dielectric matrix)
  average eigenvalue GAMMA=   1.1721
  2.6415  2.5151  1.7815  0.9342  0.9342  0.8376  0.8376  0.7080  0.5688  0.5688
  0.5662

 Free energy of the ion-electron system (eV)
  ---------------------------------------------------
  alpha Z        PSCENC =      3563.47650690
  Ewald energy   TEWEN  =    -48577.80530547
  -Hartree energ DENC   =    -18751.24893642
  -exchange      EXHF   =         0.00000000
  -V(xc)+E(xc)   XCENC  =      3313.02759236
  PAW double counting   =     89361.20869272   -89662.76472312
  entropy T*S    EENTRO =        -0.00000000
  eigenvalues    EBANDS =     -8868.50448876
  atomic energy  EATOM  =     68656.39924158
  Solvation  Ediel_sol  =         0.00000000
  ---------------------------------------------------
  free energy    TOTEN  =      -966.21142020 eV

  energy without entropy =     -966.21142020  energy(sigma->0) =     -966.21142020


--------------------------------------------------------------------------------------------------------




--------------------------------------- Iteration      1(  17)  ---------------------------------------


    POTLOK:  cpu time      0.1492: real time      0.1508
    SETDIJ:  cpu time      0.0296: real time      0.0297
     EDDAV:  cpu time     15.2353: real time     15.3457
       DOS:  cpu time      0.0006: real time      0.0006
    CHARGE:  cpu time      0.2191: real time      0.2204
    MIXING:  cpu time      0.0161: real time      0.0162
    --------------------------------------------
      LOOP:  cpu time     15.6498: real time     15.7633

 eigenvalue-minimisations  :  5344
 total energy-change (2. order) :-0.7496637E-05  (-0.1132929E-04)
 number of electron     792.0002622 magnetization
 augmentation part      211.2554422 magnetization

 Broyden mixing:
  rms(total) = 0.26825E-02    rms(broyden)= 0.26812E-02
  rms(prec ) = 0.31667E-02
  weight for this iteration     100.00

 eigenvalues of (default mixing * dielectric matrix)
  average eigenvalue GAMMA=   1.1437
  2.7135  2.5360  1.7388  0.9778  0.9778  0.8592  0.8592  0.6846  0.6846  0.5758
  0.5758  0.5416

 Free energy of the ion-electron system (eV)
  ---------------------------------------------------
  alpha Z        PSCENC =      3563.47650690
  Ewald energy   TEWEN  =    -48577.80530547
  -Hartree energ DENC   =    -18751.39105023
  -exchange      EXHF   =         0.00000000
  -V(xc)+E(xc)   XCENC  =      3313.03277601
  PAW double counting   =     89358.42088553   -89659.95312111
  entropy T*S    EENTRO =        -0.00000000
  eigenvalues    EBANDS =     -8868.39136092
  atomic energy  EATOM  =     68656.39924158
  Solvation  Ediel_sol  =         0.00000000
  ---------------------------------------------------
  free energy    TOTEN  =      -966.21142770 eV

  energy without entropy =     -966.21142770  energy(sigma->0) =     -966.21142770


--------------------------------------------------------------------------------------------------------




--------------------------------------- Iteration      1(  18)  ---------------------------------------


    POTLOK:  cpu time      0.1486: real time      0.1499
    SETDIJ:  cpu time      0.0310: real time      0.0311
     EDDAV:  cpu time     15.2723: real time     15.3839
       DOS:  cpu time      0.0030: real time      0.0030
    CHARGE:  cpu time      0.2036: real time      0.2047
    MIXING:  cpu time      0.0168: real time      0.0169
    --------------------------------------------
      LOOP:  cpu time     15.6753: real time     15.7895

 eigenvalue-minimisations  :  5344
 total energy-change (2. order) : 0.3593726E-05  (-0.3271277E-05)
 number of electron     792.0002622 magnetization
 augmentation part      211.2533881 magnetization

 Broyden mixing:
  rms(total) = 0.10478E-02    rms(broyden)= 0.10474E-02
  rms(prec ) = 0.12475E-02
  weight for this iteration     100.00

 eigenvalues of (default mixing * dielectric matrix)
  average eigenvalue GAMMA=   1.1536
  2.7908  2.4887  1.7105  1.2208  1.0719  0.9133  0.9133  0.7964  0.7964  0.6322
  0.5732  0.5732  0.5166

 Free energy of the ion-electron system (eV)
  ---------------------------------------------------
  alpha Z        PSCENC =      3563.47650690
  Ewald energy   TEWEN  =    -48577.80530547
  -Hartree energ DENC   =    -18751.45524869
  -exchange      EXHF   =         0.00000000
  -V(xc)+E(xc)   XCENC  =      3313.03273765
  PAW double counting   =     89356.85655744   -89658.38169240
[...]
      7.58456      3.79228      1.99678     0.02185 -0.02393 -2.89069 ( -0.63483  6.00000)
      7.58456      7.58456      1.99678     0.00380  0.00028 -2.89509 ( -0.63483  6.00000)
      0.00000      1.89614      0.40437     0.00170 -0.00028 -2.87621 ( -0.63488  6.00000)
      0.00000      5.68842      0.40437     0.00168 -0.00053 -2.88815 ( -0.63481  6.00000)
      0.00000      9.48070      0.40437     0.00170  0.00074 -2.88876 ( -0.63484  6.00000)
      3.79228      1.89614      0.40437     0.00292 -0.00036 -2.90697 ( -0.63479  6.00000)
      3.79228      5.68842      0.40437     0.00134 -0.00099 -2.89927 ( -0.63480  6.00000)
      3.79228      9.48070      0.40437     0.00135  0.00128 -2.89935 ( -0.63482  6.00000)
      7.58456      1.89614      0.40437     0.01279 -0.00032 -2.87116 ( -0.63467  6.00000)
      7.58456      5.68842      0.40437    -0.00272 -0.00574 -2.89565 ( -0.63480  6.00000)
      7.58456      9.48070      0.40437    -0.00272  0.00602 -2.89576 ( -0.63483  6.00000)
      1.89614      1.89614      2.80551     0.00128 -0.00004 -2.89067 ( -0.63477  6.00000)
      1.89614      5.68842      2.80551     0.00065 -0.00063 -2.89541 ( -0.63482  6.00000)
      1.89614      9.48070      2.80551     0.00056  0.00060 -2.89547 ( -0.63484  6.00000)
      5.68842      1.89614      2.80551     0.02513  0.00003 -2.99620 ( -0.63418  6.00000)
      5.68842      5.68842      2.80551     0.00036 -0.00125 -2.89190 ( -0.63480  6.00000)
      5.68842      9.48070      2.80551     0.00034  0.00120 -2.89249 ( -0.63482  6.00000)
      9.48070      1.89614      2.80551    -0.02127  0.00007 -2.76445 ( -0.63549  6.00000)
      9.48070      5.68842      2.80551    -0.00092 -0.00018 -2.89989 ( -0.63484  6.00000)
      9.48070      9.48070      2.80551    -0.00090  0.00017 -2.89995 ( -0.63486  6.00000)
 -----------------------------------------------------------------------------------------
    total drift (improves with k-points):  -0.00073 -0.00029 -0.07252




--------------------------------------------------------------------------------------------------------




 MACROSCOPIC STATIC DIELECTRIC TENSOR (including local field effects in DFT)
 ------------------------------------------------------
           6.950171     0.000026     0.033681
           0.000030     6.955801     0.000008
           0.033687     0.000010     6.367741
 ------------------------------------------------------



--------------------------------------------------------------------------------------------------------




--------------------------------------------------------------------------------------------------------




 MACROSCOPIC STATIC DIELECTRIC TENSOR (including local field effects in DFT)
 ------------------------------------------------------
           6.950171     0.000026     0.033681
           0.000030     6.955801     0.000008
           0.033687     0.000010     6.367741
 ------------------------------------------------------


 PIEZOELECTRIC TENSOR (including local field effects)  for field in x, y, z        (e  Angst)
          XX          YY          ZZ          XY          YZ          ZX
  --------------------------------------------------------------------------------
  x    -0.20357    -1.16984    -1.78547    -0.00113    -0.00017    -0.22635
  y    -0.00113    -0.00078     0.00113     0.24049     0.15879    -0.00097
  z    -0.14854    -0.24116    -0.04283     0.00024    -0.00037     0.33668

 PIEZOELECTRIC TENSOR (including local field effects)  for field in x, y, z        (C/m^2)
          XX          YY          ZZ          XY          YZ          ZX
  --------------------------------------------------------------------------------
  x    -0.00262    -0.01508    -0.02301    -0.00001    -0.00000    -0.00292
  y    -0.00001    -0.00001     0.00001     0.00310     0.00205    -0.00001
  z    -0.00191    -0.00311    -0.00055     0.00000    -0.00000     0.00434

 BORN EFFECTIVE CHARGES (including local field effects) (in |e|, cummulative output)
 ---------------------------------------------------------------------------------
 ion    1
    1     6.58480     0.00019    -0.07873
    2     0.00013     6.65717    -0.00024
    3     0.34786    -0.00004     5.78680
 ion    2
    1     6.64764    -0.00138    -0.01983
    2    -0.01316     6.65634     0.00008
    3     0.01520     0.00242     5.78618
 ion    3
    1     6.64782     0.00139    -0.01946
    2     0.01322     6.65767     0.00017
    3     0.01561    -0.00217     5.78689
 ion    4
    1     6.13739     0.00019     0.17574
    2     0.00005     6.76469     0.00012
    3     0.53582     0.00020     5.88751
 ion    5
    1     6.65922     0.05783    -0.03043
    2     0.00261     6.71593    -0.01529
    3    -0.00305     0.02878     5.79997
 ion    6
    1     6.66219    -0.05774    -0.03041
    2    -0.00249     6.72001     0.01517
    3    -0.00306    -0.02902     5.80004
 ion    7
    1     6.83222    -0.00009     0.22111
    2    -0.00002     6.41837    -0.00037
    3     0.54748    -0.00027     5.62498
 ion    8
    1     6.65523     0.01634    -0.00913
    2     0.00038     6.55325     0.02424
    3    -0.00643    -0.04778     5.77787
 ion    9
    1     6.65552    -0.01615    -0.00955
    2    -0.00030     6.55461    -0.02401
    3    -0.00682     0.04802     5.77858
 ion   10
    1     6.64790    -0.00426     0.01955
    2     0.00752     6.66285     0.00420
    3    -0.01732    -0.00137     5.79058
 ion   11
    1     6.64814     0.00421     0.01914
    2    -0.00758     6.66422    -0.00439
    3    -0.01775     0.00115     5.79128
 ion   12
    1     6.65521     0.00006     0.01359
    2     0.00009     6.66035     0.00032
    3    -0.00473     0.00017     5.78777
 ion   13
    1     6.67432    -0.03489     0.06850
    2    -0.00693     6.57153    -0.11513
    3     0.01195    -0.03013     5.74842
 ion   14
    1     6.67734     0.03503     0.06844
    2     0.00697     6.57548     0.11524
    3     0.01193     0.03034     5.74847
 ion   15
    1     6.65806     0.00002     0.01627
    2     0.00001     6.66458    -0.00007
    3     0.00211    -0.00023     5.79545
 ion   16
    1     6.63590    -0.02202     0.01968
    2    -0.00549     6.76933     0.15313
    3     0.00491     0.05129     5.80175
 ion   17
    1     6.63613     0.02212     0.01997
    2     0.00563     6.77073    -0.15338
    3     0.00524    -0.05151     5.80244
 ion   18
    1     6.66259    -0.00004     0.00389
    2    -0.00007     6.64846     0.00026
    3     0.00068     0.00017     5.77078
 ion   19
    1     6.66037     0.00758    -0.01323
    2     0.00574     6.67617    -0.01624
    3    -0.00017    -0.01288     5.77897
 ion   20
    1     6.66333    -0.00755    -0.01322
    2    -0.00562     6.68024     0.01623
    3    -0.00021     0.01270     5.77906
 ion   21
    1     6.66136     0.00002    -0.00427
    2     0.00000     6.65931     0.00017
    3    -0.00025     0.00027     5.78476
 ion   22
    1     6.65552     0.00251    -0.01668
    2     0.00300     6.64282     0.01654
    3     0.00502     0.01006     5.78842
 ion   23
    1     6.65579    -0.00221    -0.01708
    2    -0.00282     6.64419    -0.01630
    3     0.00457    -0.00987     5.78912
 ion   24
    1     6.65819    -0.00001    -0.00731
    2    -0.00009     6.66044    -0.00030
    3     0.00123    -0.00020     5.78881
 ion   25
    1     6.67350     0.06705     0.13716
    2    -0.00872     6.64070     0.01401
    3    -0.00557    -0.00274     5.77228
 ion   26
    1     6.67371    -0.06711     0.13752
    2     0.00877     6.64203    -0.01379
    3    -0.00511     0.00289     5.77300
 ion   27
    1     6.66623     0.00011     0.04548
    2     0.00010     6.65764    -0.00029
    3    -0.00069    -0.00018     5.78702
 ion   28
    1     6.74756    -0.00003     0.15764
    2    -0.00002     6.64941    -0.00011
    3     0.06532    -0.00021     5.75495
 ion   29
    1     6.65935    -0.00320     0.01886
    2    -0.00293     6.64376     0.00255
    3     0.00310     0.02451     5.79960
 ion   30
    1     6.66224     0.00309     0.01886
    2     0.00294     6.64784    -0.00244
    3     0.00311    -0.02427     5.79965
 ion   31
    1     6.55420    -0.00008     0.10063
    2    -0.00010     6.66748     0.00031
    3     0.01670     0.00020     5.81258
 ion   32
    1     6.65430     0.00353     0.01646
    2    -0.00178     6.67020     0.00033
    3     0.00126    -0.01733     5.78049
 ion   33
    1     6.65459    -0.00349     0.01685
    2     0.00186     6.67155    -0.00050
    3     0.00175     0.01726     5.78120
 ion   34
    1     6.76997     0.00001     0.51318
    2     0.00010     6.69475     0.00028
    3    -0.03696     0.00022     5.72736
 ion   35
    1     6.67004    -0.07773    -0.07262
    2     0.00516     6.66559     0.00360
    3    -0.00487     0.00504     5.79532
 ion   36
    1     6.67026     0.07770    -0.07305
    2    -0.00519     6.66695    -0.00384
    3    -0.00528    -0.00514     5.79604
 ion   37
    1    -5.45197     0.00002    -0.15545
    2    -0.00004    -1.14260    -0.00004
    3    -0.28905    -0.00006    -2.90287
 ion   38
    1    -5.52800     0.00594    -0.01505
    2     0.00317    -1.10692    -0.00687
    3     0.00166    -0.00124    -2.90633
 ion   39
    1    -5.52830    -0.00600    -0.01501
    2    -0.00320    -1.10815     0.00689
    3     0.00164     0.00128    -2.90692
 ion   40
    1    -5.45892     0.00013    -0.09834
    2     0.00007    -1.09573     0.00002
    3    -0.26672    -0.00001    -2.88948
 ion   41
    1    -5.52759     0.00138    -0.01175
    2    -0.00254    -1.13300     0.00379
    3    -0.00619     0.00179    -2.88605
 ion   42
    1    -5.52768    -0.00157    -0.01175
    2     0.00237    -1.13416    -0.00381
    3    -0.00622    -0.00183    -2.88612
 ion   43
    1    -5.47789    -0.00015    -0.60144
    2    -0.00013    -1.11405    -0.00003
    3    -0.86495     0.00002    -2.84283
 ion   44
    1    -5.54060    -0.00687     0.06228
    2    -0.00073    -1.11993    -0.00226
    3    -0.00111     0.00114    -2.89832
 ion   45
    1    -5.54077     0.00700     0.06230
    2     0.00077    -1.12112     0.00228
    3    -0.00110    -0.00114    -2.89840
 ion   46
    1    -1.12043    -0.00011    -0.01365
    2    -0.00016    -5.54216     0.00004
    3    -0.01285     0.00027    -2.89696
 ion   47
    1    -1.12216    -0.00475    -0.00263
    2     0.00262    -5.53757     0.00012
    3    -0.00093    -0.00155    -2.89384
 ion   48
    1    -1.12217     0.00482    -0.00264
    2    -0.00253    -5.53650    -0.00027
    3    -0.00093     0.00127    -2.89392
 ion   49
    1    -1.10967     0.00000    -0.08191
    2    -0.00002    -5.39285     0.00004
    3    -0.01883     0.00034    -2.92246
 ion   50
    1    -1.11486    -0.01726    -0.00811
    2    -0.00092    -5.54543    -0.00068
    3     0.00017     0.02302    -2.90813
 ion   51
    1    -1.11499     0.01720    -0.00813
    2     0.00090    -5.54456     0.00058
    3     0.00015    -0.02330    -2.90873
 ion   52
    1    -1.12605     0.00006    -0.05961
    2     0.00016    -5.71735     0.00003
    3    -0.01052     0.00029    -2.82363
 ion   53
    1    -1.13224    -0.00562    -0.00202
    2    -0.00105    -5.52130     0.00663
    3     0.00110    -0.02046    -2.87524
 ion   54
    1    -1.13229     0.00548    -0.00201
    2     0.00086    -5.52023    -0.00670
    3     0.00109     0.02016    -2.87533
 ion   55
    1    -1.11689     0.01570     0.00950
    2    -0.01087    -5.53518    -0.00375
    3    -0.01216     0.00621    -2.89682
 ion   56
    1    -1.11697    -0.01572     0.00945
    2     0.01098    -5.53418     0.00382
    3    -0.01221    -0.00599    -2.89692
 ion   57
    1    -1.12160    -0.00017     0.00144
    2    -0.00014    -5.53495    -0.00005
    3     0.00103    -0.00031    -2.89379
 ion   58
    1    -1.10606     0.15238    -0.03570
    2    -0.02767    -5.62201     0.11888
    3    -0.00840    -0.00868    -2.84908
 ion   59
    1    -1.10616    -0.15241    -0.03567
    2     0.02772    -5.62108    -0.11883
    3    -0.00842     0.00896    -2.84968
 ion   60
    1    -1.11280    -0.00007    -0.00617
    2    -0.00004    -5.54515    -0.00009
    3    -0.00117    -0.00029    -2.90605
 ion   61
    1    -1.10906     0.07880    -0.00251
    2    -0.03115    -5.37163    -0.15607
    3     0.00283    -0.02577    -2.93252
 ion   62
    1    -1.10910    -0.07892    -0.00247
    2     0.03108    -5.37055     0.15635
    3     0.00291     0.02609    -2.93258
 ion   63
    1    -1.13324     0.00004    -0.00344
    2     0.00017    -5.51077    -0.00004
    3    -0.00151    -0.00033    -2.87914
 ion   64
    1    -5.52821    -0.00215     0.01518
    2    -0.00098    -1.12672    -0.00561
    3     0.00550    -0.00815    -2.89419
 ion   65
    1    -5.52850     0.00221     0.01523
    2     0.00093    -1.12794     0.00559
    3     0.00558     0.00807    -2.89476
 ion   66
    1    -5.53409     0.00002     0.00492
    2     0.00001    -1.11908     0.00001
    3     0.00171     0.00003    -2.89577
 ion   67
    1    -5.52735     0.00007     0.01170
    2     0.00153    -1.11902     0.00383
    3    -0.00166     0.00627    -2.88999
 ion   68
    1    -5.52758    -0.00015     0.01180
    2    -0.00164    -1.12019    -0.00383
    3    -0.00162    -0.00629    -2.89008
 ion   69
    1    -5.53293     0.00016     0.00511
    2     0.00006    -1.12641     0.00002
    3    -0.00014     0.00002    -2.89110
 ion   70
    1    -5.53824     0.00681    -0.07992
    2    -0.00063    -1.12205    -0.00193
    3    -0.00373    -0.00094    -2.88719
 ion   71
    1    -5.53849    -0.00671    -0.07986
    2     0.00060    -1.12320     0.00192
    3    -0.00369     0.00095    -2.88726
 ion   72
    1    -5.53967    -0.00015    -0.02969
    2    -0.00010    -1.12248     0.00003
    3    -0.00158     0.00001    -2.89242
 ion   73
    1    -5.53154    -0.00151    -0.02043
    2     0.00011    -1.12244    -0.00025
    3    -0.01556     0.00045    -2.89310
 ion   74
    1    -5.53165     0.00156    -0.02041
    2    -0.00006    -1.12360     0.00025
    3    -0.01549    -0.00038    -2.89320
 ion   75
    1    -5.53393    -0.00019    -0.01092
    2    -0.00006    -1.12327    -0.00001
    3    -0.00559     0.00000    -2.89338
 ion   76
    1    -5.54193    -0.00284    -0.02345
    2     0.00192    -1.11711     0.00770
    3     0.00895    -0.00217    -2.88277
 ion   77
    1    -5.54231     0.00275    -0.02344
    2    -0.00202    -1.11835    -0.00766
    3     0.00894     0.00220    -2.88337
 ion   78
    1    -5.54010    -0.00001    -0.00717
    2     0.00001    -1.12535    -0.00004
    3     0.00317    -0.00004    -2.89119
 ion   79
    1    -5.54530    -0.00270    -0.00810
    2    -0.00235    -1.12738    -0.01255
    3     0.00805     0.00115    -2.89402
 ion   80
    1    -5.54540     0.00259    -0.00810
    2     0.00219    -1.12850     0.01258
    3     0.00804    -0.00110    -2.89409
 ion   81
    1    -5.54064     0.00011    -0.00172
    2     0.00005    -1.12152     0.00000
    3     0.00234     0.00002    -2.89227
 ion   82
    1    -1.12774     0.00522    -0.00517
    2    -0.00575    -5.52524     0.02022
    3    -0.01150     0.02743    -2.88512
 ion   83
    1    -1.12787    -0.00515    -0.00520
    2     0.00571    -5.52429    -0.02036
    3    -0.01148    -0.02776    -2.88574
 ion   84
    1    -1.12649     0.00002    -0.00195
    2     0.00001    -5.53068     0.00005
    3    -0.00197     0.00028    -2.88978
 ion   85
    1    -1.11610     0.01708    -0.00111
    2    -0.00614    -5.54865    -0.01857
    3    -0.00946    -0.01718    -2.89721
 ion   86
    1    -1.11610    -0.01712    -0.00114
    2     0.00609    -5.54765     0.01848
    3    -0.00945     0.01679    -2.89729
 ion   87
    1    -1.11915     0.00010    -0.00059
    2     0.00010    -5.54062     0.00002
    3    -0.00216     0.00027    -2.89702
 ion   88
    1    -1.12648    -0.15130    -0.05158
    2     0.00884    -5.55202    -0.01783
    3     0.02184     0.02362    -2.88992
 ion   89
    1    -1.12652     0.15140    -0.05154
    2    -0.00877    -5.55091     0.01776
    3     0.02185    -0.02392    -2.89002
 ion   90
    1    -1.12320    -0.00012    -0.00539
    2    -0.00020    -5.53756     0.00008
    3     0.00381     0.00028    -2.89441
 ion   91
    1    -1.12947    -0.00005    -0.01639
    2     0.00001    -5.56863    -0.00010
    3     0.00171    -0.00028    -2.87554
 ion   92
    1    -1.12604     0.00108    -0.00009
    2     0.00091    -5.53645     0.00143
    3     0.00169    -0.00053    -2.88748
 ion   93
    1    -1.12617    -0.00113    -0.00008
    2    -0.00094    -5.53557    -0.00146
    3     0.00170     0.00075    -2.88809
 ion   94
    1    -1.11680    -0.00004    -0.00495
    2     0.00007    -5.50970    -0.00009
    3     0.00293    -0.00035    -2.90630
 ion   95
    1    -1.11975    -0.00220     0.00152
    2     0.00088    -5.53775    -0.00205
    3     0.00135    -0.00098    -2.89860
 ion   96
    1    -1.11978     0.00201     0.00151
    2    -0.00104    -5.53668     0.00212
    3     0.00136     0.00129    -2.89868
 ion   97
    1    -1.11543    -0.00007    -0.16254
    2    -0.00010    -5.50859    -0.00006
    3     0.01279    -0.00032    -2.87048
 ion   98
    1    -1.12331     0.02777    -0.01006
    2    -0.00183    -5.53533    -0.00106
    3    -0.00271    -0.00574    -2.89498
 ion   99
    1    -1.12337    -0.02783    -0.01003
    2     0.00197    -5.53423     0.00115
    3    -0.00271     0.00602    -2.89509
 ion  100
    1    -5.51342    -0.00024     0.01195
    2    -0.00007    -1.12356     0.00000
    3     0.00128    -0.00003    -2.89000
 ion  101
    1    -5.53098     0.00341     0.01546
    2     0.00018    -1.12219    -0.00024
    3     0.00066    -0.00062    -2.89474
 ion  102
    1    -5.53111    -0.00320     0.01550
    2    -0.00012    -1.12331     0.00025
    3     0.00057     0.00060    -2.89480
 ion  103
    1    -5.53657     0.00001     0.11187
    2    -0.00001    -1.11287     0.00003
    3     0.02514     0.00003    -2.99553
 ion  104
    1    -5.54063     0.00440     0.01439
    2    -0.00086    -1.12854    -0.00212
    3     0.00037    -0.00124    -2.89123
 ion  105
    1    -5.54091    -0.00437     0.01438
    2     0.00086    -1.12976     0.00210
    3     0.00035     0.00120    -2.89181
 ion  106
    1    -5.54270     0.00019     0.02077
    2     0.00006    -1.13673    -0.00005
    3    -0.02126     0.00008    -2.76377
 ion  107
    1    -5.54276     0.00533     0.00335
    2     0.00079    -1.11712    -0.00168
    3    -0.00091    -0.00017    -2.89922
 ion  108
    1    -5.54295    -0.00542     0.00336
    2    -0.00087    -1.11830     0.00167
    3    -0.00089     0.00017    -2.89928


--------------------------------------------------------------------------------------------------------


     LOOP+:  cpu time   1591.1232: real time   1610.8987
    4ORBIT:  cpu time      0.0000: real time      0.0000

 total amount of memory used by VASP MPI-rank0   266725. kBytes
=======================================================================

   base      :      30000. kBytes
   nonlr-proj:      19556. kBytes
   fftplans  :      10927. kBytes
   grid      :      23181. kBytes
   one-center:       1679. kBytes
   wavefun   :     181382. kBytes



 General timing and accounting informations for this job:
 ========================================================

                  Total CPU time used (sec):     1601.177
                            User time (sec):     1555.318
                          System time (sec):       45.859
                         Elapsed time (sec):     1622.846

                   Maximum memory used (kb):     1086448.
                   Average memory used (kb):          N/A

                          Minor page faults:       775446
                          Major page faults:           11
                 Voluntary context switches:       100726
