 vasp.6.3.0 20Jan22 (build Mar 29 2022 16:24:06) complex

 executed on             Bridges2 date 2023.01.10  17:36:55
 running on   64 total cores
 distrk:  each k-point on    8 cores,    8 groups
 distr:  one band on NCORE=   1 cores,    8 groups


--------------------------------------------------------------------------------------------------------


 INCAR:
   ICHARG = 2
   LWAVE = .FALSE.
   LCHARG = .FALSE.
   LVTOT = .FALSE.
   NCORE = 1
   KPAR = 8
   EDIFF = 1E-5
   NELM = 80
   PREC = Normal
   LREAL = Auto
   NELMIN = 4
   ENCUT = 400.0 eV
   ISPIN = 1
   ISYM = 2
   ISMEAR = 0
   SIGMA = 0.10
   ISIF = 2
   IBRION = 6
   NSW = 1
   EDIFFG = -0.01
   IVDW = 12

 POTCAR:    PAW_PBE Ti_pv 07Sep2000
 POTCAR:    PAW_PBE O 08Apr2002
 -----------------------------------------------------------------------------
|                                                                             |
|           W    W    AA    RRRRR   N    N  II  N    N   GGGG   !!!           |
|           W    W   A  A   R    R  NN   N  II  NN   N  G    G  !!!           |
|           W    W  A    A  R    R  N N  N  II  N N  N  G       !!!           |
|           W WW W  AAAAAA  RRRRR   N  N N  II  N  N N  G  GGG   !            |
|           WW  WW  A    A  R   R   N   NN  II  N   NN  G    G                |
|           W    W  A    A  R    R  N    N  II  N    N   GGGG   !!!           |
|                                                                             |
|     For optimal performance we recommend to set                             |
|       NCORE = 2 up to number-of-cores-per-socket                            |
|     NCORE specifies how many cores store one orbital (NPAR=cpu/NCORE).      |
|     This setting can greatly improve the performance of VASP for DFT.       |
|     The default, NCORE=1 might be grossly inefficient on modern             |
|     multi-core architectures or massively parallel machines. Do your        |
|     own testing! More info at https://www.vasp.at/wiki/index.php/NCORE      |
|     Unfortunately you need to use the default for GW and RPA                |
|     calculations (for HF NCORE is supported but not extensively tested      |
|     yet).                                                                   |
|                                                                             |
 -----------------------------------------------------------------------------

 POTCAR:    PAW_PBE Ti_pv 07Sep2000
   VRHFIN =Ti: d3 s1
   LEXCH  = PE
   EATOM  =  1042.5995 eV,   76.6289 Ry

   TITEL  = PAW_PBE Ti_pv 07Sep2000
   LULTRA =        F    use ultrasoft PP ?
   IUNSCR =        1    unscreen: 0-lin 1-nonlin 2-no
   RPACOR =    2.200    partial core radius
   POMASS =   47.880; ZVAL   =   10.000    mass and valenz
   RCORE  =    2.500    outmost cutoff radius
   RWIGS  =    2.500; RWIGS  =    1.323    wigner-seitz radius (au A)
   ENMAX  =  222.335; ENMIN  =  166.751 eV
   RCLOC  =    1.701    cutoff for local pot
   LCOR   =        T    correct aug charges
   LPAW   =        T    paw PP
   EAUG   =  482.848
   DEXC   =    0.000
   RMAX   =    2.564    core radius for proj-oper
   RAUG   =    1.300    factor for augmentation sphere
   RDEP   =    2.538    radius for radial grids
   RDEPT  =    1.952    core radius for aug-charge

   Atomic configuration
    8 entries
     n  l   j            E        occ.
     1  0  0.50     -4865.3608   2.0000
     2  0  0.50      -533.1368   2.0000
     2  1  1.50      -440.5031   6.0000
     3  0  0.50       -59.3186   2.0000
     3  1  1.50       -35.7012   6.0000
     3  2  2.50        -1.9157   3.0000
     4  0  0.50        -3.7291   1.0000
     4  3  2.50        -1.3606   0.0000
   Description
     l       E           TYP  RCUT    TYP  RCUT
     1    -35.7012140     23  2.300
     1     -1.3605826     23  2.300
     2     -1.9156996     23  2.500
     2     -0.4063033     23  2.500
     0     -3.7290856     23  2.500
     0     20.4087390     23  2.500
  local pseudopotential read in
  partial core-charges read in
  partial kinetic energy density read in
  atomic valenz-charges read in
  non local Contribution for L=           1  read in
    real space projection operators read in
  non local Contribution for L=           1  read in
    real space projection operators read in
  non local Contribution for L=           2  read in
    real space projection operators read in
  non local Contribution for L=           2  read in
    real space projection operators read in
  non local Contribution for L=           0  read in
    real space projection operators read in
  non local Contribution for L=           0  read in
    real space projection operators read in
    PAW grid and wavefunctions read in

   number of l-projection  operators is LMAX  =           6
   number of lm-projection operators is LMMAX =          18

 POTCAR:    PAW_PBE O 08Apr2002
   VRHFIN =O: s2p4
   LEXCH  = PE
   EATOM  =   432.3788 eV,   31.7789 Ry

   TITEL  = PAW_PBE O 08Apr2002
   LULTRA =        F    use ultrasoft PP ?
   IUNSCR =        1    unscreen: 0-lin 1-nonlin 2-no
   RPACOR =    1.200    partial core radius
   POMASS =   16.000; ZVAL   =    6.000    mass and valenz
   RCORE  =    1.520    outmost cutoff radius
   RWIGS  =    1.550; RWIGS  =    0.820    wigner-seitz radius (au A)
   ENMAX  =  400.000; ENMIN  =  300.000 eV
   ICORE  =        2    local potential
   LCOR   =        T    correct aug charges
   LPAW   =        T    paw PP
   EAUG   =  605.392
   DEXC   =    0.000
   RMAX   =    1.553    core radius for proj-oper
   RAUG   =    1.300    factor for augmentation sphere
   RDEP   =    1.550    radius for radial grids
   RDEPT  =    1.329    core radius for aug-charge

   Atomic configuration
    4 entries
     n  l   j            E        occ.
     1  0  0.50      -514.6923   2.0000
     2  0  0.50       -23.9615   2.0000
     2  1  0.50        -9.0305   4.0000
     3  2  1.50        -9.5241   0.0000
   Description
     l       E           TYP  RCUT    TYP  RCUT
     0    -23.9615318     23  1.200
     0     -9.5240782     23  1.200
     1     -9.0304911     23  1.520
     1      8.1634956     23  1.520
     2     -9.5240782      7  1.500
  local pseudopotential read in
  partial core-charges read in
  partial kinetic energy density read in
  kinetic energy density of atom read in
  atomic valenz-charges read in
  non local Contribution for L=           0  read in
    real space projection operators read in
  non local Contribution for L=           0  read in
    real space projection operators read in
  non local Contribution for L=           1  read in
    real space projection operators read in
  non local Contribution for L=           1  read in
    real space projection operators read in
    PAW grid and wavefunctions read in

   number of l-projection  operators is LMAX  =           4
   number of lm-projection operators is LMMAX =           8

 Optimization of the real space projectors (new method)

 maximal supplied QI-value         = 15.12
 optimisation between [QCUT,QGAM] = [ 10.13, 20.41] = [ 28.73,116.64] Ry
 Optimized for a Real-space Cutoff    1.51 Angstroem

   l    n(q)    QCUT    max X(q) W(low)/X(q) W(high)/X(q)  e(spline)
   1      9    10.129     4.216    0.12E-04    0.72E-04    0.60E-07
   1      9    10.129     5.422    0.84E-04    0.21E-03    0.15E-06
   2      8    10.129    72.084    0.33E-03    0.35E-04    0.17E-06
   2      8    10.129    65.965    0.33E-03    0.37E-04    0.17E-06
   0      9    10.129    41.531    0.17E-03    0.19E-03    0.81E-07
   0      9    10.129    16.290    0.12E-03    0.14E-03    0.64E-07
 Optimization of the real space projectors (new method)

 maximal supplied QI-value         = 24.76
 optimisation between [QCUT,QGAM] = [ 10.15, 20.30] = [ 28.85,115.39] Ry
 Optimized for a Real-space Cutoff    1.38 Angstroem

   l    n(q)    QCUT    max X(q) W(low)/X(q) W(high)/X(q)  e(spline)
   0      8    10.150    20.381    0.22E-03    0.32E-03    0.29E-06
   0      8    10.150    15.268    0.23E-03    0.35E-03    0.30E-06
   1      8    10.150     5.964    0.46E-03    0.53E-03    0.21E-06
   1      8    10.150     5.382    0.38E-03    0.45E-03    0.19E-06
  PAW_PBE Ti_pv 07Sep2000               :
 energy of atom  1       EATOM=-1042.5995
 kinetic energy error for atom=    0.0037 (will be added to EATOM!!)
  PAW_PBE O 08Apr2002                   :
 energy of atom  2       EATOM= -432.3788
 kinetic energy error for atom=    0.1156 (will be added to EATOM!!)


 POSCAR: Ti4 O8
  positions in direct lattice
  velocities in cartesian coordinates
 exchange correlation table for  LEXCH =        8
   RHO(1)=    0.500       N(1)  =     2000
   RHO(2)=  100.500       N(2)  =     4000



--------------------------------------------------------------------------------------------------------


 ion  position               nearest neighbor table
   1  0.167  0.167  0.500-  40 1.94  56 1.94  55 1.94  37 1.94  46 2.00 100 2.00  11 3.06  31 3.06
                            28 3.06  10 3.06
   2  0.167  0.500  0.500-  56 1.94  41 1.94  38 1.94  57 1.94  47 2.00 101 2.00  11 3.06  32 3.06
                            29 3.06  12 3.06
   3  0.167  0.833  0.500-  57 1.94  42 1.94  39 1.94  55 1.94  48 2.00 102 2.00  12 3.06  33 3.06
                            30 3.06  10 3.06
   4  0.500  0.167  0.500-  40 1.94  59 1.94  58 1.94  43 1.94  49 2.00 103 2.00  31 3.06  14 3.06
                            13 3.06  34 3.06
   5  0.500  0.500  0.500-  41 1.94  59 1.94  44 1.94  60 1.94  50 2.00 104 2.00  14 3.06  32 3.06
                            15 3.06  35 3.06
   6  0.500  0.833  0.500-  60 1.94  42 1.94  58 1.94  45 1.94  51 2.00 105 2.00  15 3.06  33 3.06
                            13 3.06  36 3.06
   7  0.833  0.167  0.500-  43 1.94  62 1.94  61 1.94  37 1.94  52 2.00 106 2.00  34 3.06  17 3.06
                            16 3.06  28 3.06
   8  0.833  0.500  0.500-  44 1.94  62 1.94  38 1.94  63 1.94  53 2.00 107 2.00  35 3.06  17 3.06
                            29 3.06  18 3.06
   9  0.833  0.833  0.500-  45 1.94  63 1.94  61 1.94  39 1.94  54 2.00 108 2.00  18 3.06  36 3.06
                            30 3.06  16 3.06
  10  0.167  0.000  0.750-  67 1.94  64 1.94  46 1.94  48 1.94  55 2.00  73 2.00  22 3.06  19 3.06
                             1 3.06   3 3.06
  11  0.167  0.333  0.750-  47 1.94  46 1.94  68 1.94  65 1.94  56 2.00  74 2.00   2 3.06   1 3.06
                            23 3.06  20 3.06
  12  0.167  0.667  0.750-  48 1.94  69 1.94  66 1.94  47 1.94  57 2.00  75 2.00   3 3.06  24 3.06
                            21 3.06   2 3.06
  13  0.500  0.000  0.750-  67 1.94  49 1.94  51 1.94  70 1.94  58 2.00  76 2.00  22 3.06   4 3.06
                             6 3.06  25 3.06
  14  0.500  0.333  0.750-  50 1.94  68 1.94  49 1.94  71 1.94  59 2.00  77 2.00   5 3.06  23 3.06
                             4 3.06  26 3.06
  15  0.500  0.667  0.750-  51 1.94  69 1.94  50 1.94  72 1.94  60 2.00  78 2.00   6 3.06  24 3.06
                             5 3.06  27 3.06
  16  0.833  0.000  0.750-  70 1.94  52 1.94  64 1.94  54 1.94  61 2.00  79 2.00  25 3.06   7 3.06
                            19 3.06   9 3.06
  17  0.833  0.333  0.750-  71 1.94  53 1.94  52 1.94  65 1.94  62 2.00  80 2.00  26 3.06   8 3.06
                             7 3.06  20 3.06
  18  0.833  0.667  0.750-  54 1.94  72 1.94  66 1.94  53 1.94  63 2.00  81 2.00   9 3.06  27 3.06
                            21 3.06   8 3.06
  19  0.000  0.000  0.000-  73 1.94  91 1.94  79 1.94  93 1.94  64 2.00  82 2.00  10 3.06  28 3.06
                            16 3.06  30 3.06
  20  0.000  0.333  0.000-  92 1.94  91 1.94  74 1.94  80 1.94  65 2.00  83 2.00  29 3.06  28 3.06
                            11 3.06  17 3.06
  21  0.000  0.667  0.000-  93 1.94  75 1.94  81 1.94  92 1.94  66 2.00  84 2.00  30 3.06  12 3.06
                            29 3.06  18 3.06
  22  0.333  0.000  0.000-  76 1.94  73 1.94  94 1.94  96 1.94  67 2.00  85 2.00  13 3.06  10 3.06
                            31 3.06  33 3.06
  23  0.333  0.333  0.000-  77 1.94  95 1.94  74 1.94  94 1.94  68 2.00  86 2.00  14 3.06  32 3.06
                            31 3.06  11 3.06
  24  0.333  0.667  0.000-  96 1.94  78 1.94  75 1.94  95 1.94  69 2.00  87 2.00  33 3.06  15 3.06
                            12 3.06  32 3.06
  25  0.667  0.000  0.000-  79 1.94  97 1.94  76 1.94  99 1.94  70 2.00  88 2.00  16 3.06  34 3.06
                            13 3.06  36 3.06
  26  0.667  0.333  0.000-  80 1.94  98 1.94  97 1.94  77 1.94  71 2.00  89 2.00  17 3.06  35 3.06
                            34 3.06  14 3.06
  27  0.667  0.667  0.000-  81 1.94  99 1.94  78 1.94  98 1.94  72 2.00  90 2.00  18 3.06  36 3.06
                            35 3.06  15 3.06
  28  0.000  0.167  0.250-  83 1.94  82 1.94 100 1.94 106 1.94  91 2.00  37 2.00  20 3.06  19 3.06
                             1 3.06   7 3.06
  29  0.000  0.500  0.250-  83 1.94 101 1.94  84 1.94 107 1.94  92 2.00  38 2.00  20 3.06   2 3.06
                             8 3.06  21 3.06
  30  0.000  0.833  0.250-  84 1.94 102 1.94  82 1.94 108 1.94  93 2.00  39 2.00  21 3.06   3 3.06
                            19 3.06   9 3.06
  31  0.333  0.167  0.250- 103 1.94 100 1.94  86 1.94  85 1.94  94 2.00  40 2.00   4 3.06   1 3.06
                            23 3.06  22 3.06
  32  0.333  0.500  0.250-  86 1.94 104 1.94 101 1.94  87 1.94  95 2.00  41 2.00   5 3.06  23 3.06
                             2 3.06  24 3.06
  33  0.333  0.833  0.250-  87 1.94 105 1.94 102 1.94  85 1.94  96 2.00  42 2.00  24 3.06   6 3.06
                             3 3.06  22 3.06
  34  0.667  0.167  0.250- 106 1.94  89 1.94  88 1.94 103 1.94  97 2.00  43 2.00   7 3.06  26 3.06
                            25 3.06   4 3.06
  35  0.667  0.500  0.250- 107 1.94  89 1.94 104 1.94  90 1.94  98 2.00  44 2.00   8 3.06  26 3.06
                             5 3.06  27 3.06
  36  0.667  0.833  0.250-  90 1.94 108 1.94 105 1.94  88 1.94  99 2.00  45 2.00   9 3.06  27 3.06
                            25 3.06   6 3.06
  37  0.000  0.167  0.458-   1 1.94   7 1.94  28 2.00
  38  0.000  0.500  0.458-   2 1.94   8 1.94  29 2.00
  39  0.000  0.833  0.458-   3 1.94   9 1.94  30 2.00
  40  0.333  0.167  0.458-   4 1.94   1 1.94  31 2.00
  41  0.333  0.500  0.458-   5 1.94   2 1.94  32 2.00
  42  0.333  0.833  0.458-   6 1.94   3 1.94  33 2.00
  43  0.667  0.167  0.458-   7 1.94   4 1.94  34 2.00
  44  0.667  0.500  0.458-   8 1.94   5 1.94  35 2.00
  45  0.667  0.833  0.458-   9 1.94   6 1.94  36 2.00
  46  0.167  0.167  0.708-  11 1.94  10 1.94   1 2.00
  47  0.167  0.500  0.708-  11 1.94  12 1.94   2 2.00
  48  0.167  0.833  0.708-  12 1.94  10 1.94   3 2.00
  49  0.500  0.167  0.708-  14 1.94  13 1.94   4 2.00
  50  0.500  0.500  0.708-  14 1.94  15 1.94   5 2.00
  51  0.500  0.833  0.708-  15 1.94  13 1.94   6 2.00
  52  0.833  0.167  0.708-  17 1.94  16 1.94   7 2.00
  53  0.833  0.500  0.708-  17 1.94  18 1.94   8 2.00
  54  0.833  0.833  0.708-  18 1.94  16 1.94   9 2.00
  55  0.167  0.000  0.542-   1 1.94   3 1.94  10 2.00
  56  0.167  0.333  0.542-   2 1.94   1 1.94  11 2.00
  57  0.167  0.667  0.542-   3 1.94   2 1.94  12 2.00
  58  0.500  0.000  0.542-   4 1.94   6 1.94  13 2.00
  59  0.500  0.333  0.542-   5 1.94   4 1.94  14 2.00
  60  0.500  0.667  0.542-   6 1.94   5 1.94  15 2.00
  61  0.833  0.000  0.542-   7 1.94   9 1.94  16 2.00
  62  0.833  0.333  0.542-   8 1.94   7 1.94  17 2.00
  63  0.833  0.667  0.542-   9 1.94   8 1.94  18 2.00
  64  0.000  0.000  0.792-  10 1.94  16 1.94  19 2.00
  65  0.000  0.333  0.792-  11 1.94  17 1.94  20 2.00
  66  0.000  0.667  0.792-  12 1.94  18 1.94  21 2.00
  67  0.333  0.000  0.792-  13 1.94  10 1.94  22 2.00
  68  0.333  0.333  0.792-  14 1.94  11 1.94  23 2.00
  69  0.333  0.667  0.792-  15 1.94  12 1.94  24 2.00
  70  0.667  0.000  0.792-  16 1.94  13 1.94  25 2.00
  71  0.667  0.333  0.792-  17 1.94  14 1.94  26 2.00
  72  0.667  0.667  0.792-  18 1.94  15 1.94  27 2.00
  73  0.167  0.000  0.958-  22 1.94  19 1.94  10 2.00
  74  0.167  0.333  0.958-  23 1.94  20 1.94  11 2.00
  75  0.167  0.667  0.958-  24 1.94  21 1.94  12 2.00
  76  0.500  0.000  0.958-  22 1.94  25 1.94  13 2.00
  77  0.500  0.333  0.958-  23 1.94  26 1.94  14 2.00
  78  0.500  0.667  0.958-  24 1.94  27 1.94  15 2.00
  79  0.833  0.000  0.958-  25 1.94  19 1.94  16 2.00
  80  0.833  0.333  0.958-  26 1.94  20 1.94  17 2.00
  81  0.833  0.667  0.958-  27 1.94  21 1.94  18 2.00
  82  0.000  0.000  0.208-  28 1.94  30 1.94  19 2.00
  83  0.000  0.333  0.208-  29 1.94  28 1.94  20 2.00
  84  0.000  0.667  0.208-  30 1.94  29 1.94  21 2.00
  85  0.333  0.000  0.208-  31 1.94  33 1.94  22 2.00
  86  0.333  0.333  0.208-  32 1.94  31 1.94  23 2.00
  87  0.333  0.667  0.208-  33 1.94  32 1.94  24 2.00
  88  0.667  0.000  0.208-  34 1.94  36 1.94  25 2.00
  89  0.667  0.333  0.208-  35 1.94  34 1.94  26 2.00
  90  0.667  0.667  0.208-  36 1.94  35 1.94  27 2.00
  91  0.000  0.167  0.042-  20 1.94  19 1.94  28 2.00
  92  0.000  0.500  0.042-  20 1.94  21 1.94  29 2.00
  93  0.000  0.833  0.042-  21 1.94  19 1.94  30 2.00
  94  0.333  0.167  0.042-  23 1.94  22 1.94  31 2.00
  95  0.333  0.500  0.042-  23 1.94  24 1.94  32 2.00
  96  0.333  0.833  0.042-  24 1.94  22 1.94  33 2.00
  97  0.667  0.167  0.042-  26 1.94  25 1.94  34 2.00
  98  0.667  0.500  0.042-  26 1.94  27 1.94  35 2.00
  99  0.667  0.833  0.042-  27 1.94  25 1.94  36 2.00
 100  0.167  0.167  0.292-  31 1.94  28 1.94   1 2.00
 101  0.167  0.500  0.292-  32 1.94  29 1.94   2 2.00
 102  0.167  0.833  0.292-  33 1.94  30 1.94   3 2.00
 103  0.500  0.167  0.292-  31 1.94  34 1.94   4 2.00
 104  0.500  0.500  0.292-  32 1.94  35 1.94   5 2.00
 105  0.500  0.833  0.292-  33 1.94  36 1.94   6 2.00
 106  0.833  0.167  0.292-  34 1.94  28 1.94   7 2.00
 107  0.833  0.500  0.292-  35 1.94  29 1.94   8 2.00
 108  0.833  0.833  0.292-  36 1.94  30 1.94   9 2.00

  LATTYP: Found a simple tetragonal cell.
 ALAT       =    11.3768434223
 C/A-ratio  =     0.8442213906

  Lattice vectors:

 A1 = (  11.3768434223,   0.0000000000,   0.0000000000)
 A2 = (   0.0000000000,  11.3768434223,   0.0000000000)
 A3 = (   0.0000000000,   0.0000000000,   9.6045745743)


Analysis of symmetry for initial positions (statically):
=====================================================================
 Subroutine PRICEL returns following result:

  LATTYP: Found a body centered tetragonal cell.
 ALAT       =     3.7922812508
 C/A-ratio  =     2.5326640983

  Lattice vectors:

 A1 = (  -1.8961406311,   1.8961406197,   4.8022872871)
 A2 = (   1.8961406311,  -1.8961406197,   4.8022872871)
 A3 = (   1.8961406311,   1.8961406311,  -4.8022872871)

  18 primitive cells build up your supercell.


 Routine SETGRP: Setting up the symmetry group for a
 simple tetragonal supercell.


 Subroutine GETGRP returns: Found 16 space group operations
 (whereof  8 operations were pure point group operations)
 out of a pool of 16 trial point group operations.


The static configuration has the point symmetry D_2d.
 The point group associated with its full space group is D_4h.


Analysis of symmetry for dynamics (positions and initial velocities):
=====================================================================
 Subroutine PRICEL returns following result:

  LATTYP: Found a body centered tetragonal cell.
 ALAT       =     3.7922812508
 C/A-ratio  =     2.5326640983

  Lattice vectors:

 A1 = (  -1.8961406311,   1.8961406197,   4.8022872871)
 A2 = (   1.8961406311,  -1.8961406197,   4.8022872871)
 A3 = (   1.8961406311,   1.8961406311,  -4.8022872871)

  18 primitive cells build up your supercell.


 Routine SETGRP: Setting up the symmetry group for a
 simple tetragonal supercell.


 Subroutine GETGRP returns: Found 16 space group operations
 (whereof  8 operations were pure point group operations)
 out of a pool of 16 trial point group operations.


The dynamic configuration has the point symmetry D_2d.
 The point group associated with its full space group is D_4h.


 Subroutine INISYM returns: Found 16 space group operations
 (whereof  8 operations are pure point group operations),
 and found    18 'primitive' translations


----------------------------------------------------------------------------------------

                                     Primitive cell

  volume of cell :      69.0636

  direct lattice vectors                    reciprocal lattice vectors
    -1.896140631  1.896140620  4.802287287    -0.000000001  0.263693522  0.104117053
     1.896140631 -1.896140620  4.802287287     0.263693521 -0.000000000  0.104117053
     1.896140631  1.896140631 -4.802287287     0.263693521  0.263693522  0.000000000

  length of vectors
     5.500241970  5.500241970  5.500241974     0.283504205  0.283504204  0.372918954

  position of ions in fractional coordinates (direct lattice)
     0.000000000  0.000000000  0.000000000
     0.749999999  0.249999997  0.499999996
     0.957898598  0.457898597  0.499999996
     0.207898600  0.207898600  0.000000000
     0.542101399  0.042101400  0.499999999
     0.792101400  0.792101400  0.000000000

  ion indices of the primitive-cell ions
   primitive index   ion index
                 1           1
                 2          31
                 3          40
                 4          46
                 5          56
                 6         100

----------------------------------------------------------------------------------------



 KPOINTS: K-Points

Automatic generation of k-mesh.
 Grid dimensions read from file:
 generate k-points for:    2    2    2

 Generating k-lattice:

  Cartesian coordinates                     Fractional coordinates (reciprocal lattice)
     0.043948922  0.000000000  0.000000000     0.500000000  0.000000000  0.000000000
     0.000000000  0.043948922  0.000000000     0.000000000  0.500000000  0.000000000
     0.000000000  0.000000000  0.052058527     0.000000000  0.000000000  0.500000000

  Length of vectors
     0.043948922  0.043948922  0.052058527

  Shift w.r.t. Gamma in fractional coordinates (k-lattice)
     0.500000000  0.500000000  0.500000000


 Subroutine IBZKPT returns following result:
 ===========================================

 Found      1 irreducible k-points:

 Following reciprocal coordinates:
            Coordinates               Weight
  0.250000  0.250000  0.250000      8.000000

 Following cartesian coordinates:
            Coordinates               Weight
  0.021974  0.021974  0.026029      8.000000


 Subroutine IBZKPT_HF returns following result:
 ==============================================

 Found      8 k-points in 1st BZ
 the following      8 k-points will be used (e.g. in the exchange kernel)
 Following reciprocal coordinates:   # in IRBZ
  0.250000  0.250000  0.250000    0.12500000   1 t-inv F
  0.250000 -0.250000 -0.250000    0.12500000   1 t-inv F
 -0.250000 -0.250000  0.250000    0.12500000   1 t-inv F
 -0.250000  0.250000 -0.250000    0.12500000   1 t-inv F
  0.250000 -0.250000  0.250000    0.12500000   1 t-inv F
  0.250000  0.250000 -0.250000    0.12500000   1 t-inv F
 -0.250000  0.250000  0.250000    0.12500000   1 t-inv F
 -0.250000 -0.250000 -0.250000    0.12500000   1 t-inv F


--------------------------------------------------------------------------------------------------------




 Dimension of arrays:
   k-points           NKPTS =      1   k-points in BZ     NKDIM =      1   number of bands    NBANDS=    480
   number of dos      NEDOS =    301   number of ions     NIONS =    108
   non local maximal  LDIM  =      6   non local SUM 2l+1 LMDIM =     18
   total plane-waves  NPLWV = 150528
   max r-space proj   IRMAX =   1791   max aug-charges    IRDMAX=   4900
   dimension x,y,z NGX =    56 NGY =   56 NGZ =   48
   dimension x,y,z NGXF=   112 NGYF=  112 NGZF=   96
   support grid    NGXF=   112 NGYF=  112 NGZF=   96
   ions per type =              36  72
   NGX,Y,Z   is equivalent  to a cutoff of   8.18,  8.18,  8.31 a.u.
   NGXF,Y,Z  is equivalent  to a cutoff of  16.37, 16.37, 16.62 a.u.

 SYSTEM =  unknown system
 POSCAR =  Ti4 O8

 Startparameter for this run:
   NWRITE =      2    write-flag & timer
   PREC   = normal    normal or accurate (medium, high low for compatibility)
   ISTART =      0    job   : 0-new  1-cont  2-samecut
   ICHARG =      2    charge: 1-file 2-atom 10-const
   ISPIN  =      1    spin polarized calculation?
   LNONCOLLINEAR =      F non collinear calculations
   LSORBIT =      F    spin-orbit coupling
   INIWAV =      1    electr: 0-lowe 1-rand  2-diag
   LASPH  =      F    aspherical Exc in radial PAW
 Electronic Relaxation 1
   ENCUT  =  400.0 eV  29.40 Ry    5.42 a.u.  18.55 18.55 15.66*2*pi/ulx,y,z
   ENINI  =  400.0     initial cutoff
   ENAUG  =  605.4 eV  augmentation charge cutoff
   NELM   =     80;   NELMIN=  4; NELMDL= -5     # of ELM steps
   EDIFF  = 0.1E-04   stopping-criterion for ELM
   LREAL  =      T    real-space projection
   NLSPLINE    = F    spline interpolate recip. space projectors
   LCOMPAT=      F    compatible to vasp.4.4
   GGA_COMPAT  = T    GGA compatible to vasp.4.4-vasp.4.6
   LMAXPAW     = -100 max onsite density
   LMAXMIX     =    2 max onsite mixed and CHGCAR
   VOSKOWN=      0    Vosko Wilk Nusair interpolation
   ROPT   =   -0.00050  -0.00050
 Ionic relaxation
   EDIFFG = -.1E-01   stopping-criterion for IOM
   NSW    =   1333    number of steps for IOM
   NBLOCK =      1;   KBLOCK =   1333    inner block; outer block
   IBRION =      6    ionic relax: 0-MD 1-quasi-New 2-CG
   NFREE  =      2    steps in history (QN), initial steepest desc. (CG)
   ISIF   =      2    stress and relaxation
   IWAVPR =     11    prediction:  0-non 1-charg 2-wave 3-comb
   ISYM   =      2    0-nonsym 1-usesym 2-fastsym
   LCORR  =      T    Harris-Foulkes like correction to forces

   POTIM  = 0.5000    time-step for ionic-motion
   TEIN   =    0.0    initial temperature
   TEBEG  =    0.0;   TEEND  =   0.0 temperature during run
   SMASS  =  -3.00    Nose mass-parameter (am)
   estimated Nose-frequenzy (Omega)   =  0.10E-29 period in steps = 0.13E+47 mass=  -0.296E-26a.u.
   SCALEE = 1.0000    scale energy and forces
   NPACO  =    256;   APACO  = 10.0  distance and # of slots for P.C.
   PSTRESS=    0.0 pullay stress

  Mass of Ions in am
   POMASS =  47.88 16.00
  Ionic Valenz
   ZVAL   =  10.00  6.00
  Atomic Wigner-Seitz radii
   RWIGS  =  -1.00 -1.00
  virtual crystal weights
   VCA    =   1.00  1.00
   NELECT =     792.0000    total number of electrons
   NUPDOWN=      -1.0000    fix difference up-down

 DOS related values:
   EMIN   =  10.00;   EMAX   =-10.00  energy-range for DOS
   EFERMI =   0.00
   ISMEAR =     0;   SIGMA  =   0.10  broadening in eV -4-tet -1-fermi 0-gaus

 Electronic relaxation 2 (details)
   IALGO  =     38    algorithm
   LDIAG  =      T    sub-space diagonalisation (order eigenvalues)
   LSUBROT=      F    optimize rotation matrix (better conditioning)
   TURBO    =      0    0=normal 1=particle mesh
   IRESTART =      0    0=no restart 2=restart with 2 vectors
   NREBOOT  =      0    no. of reboots
   NMIN     =      0    reboot dimension
   EREF     =   0.00    reference energy to select bands
   IMIX   =      4    mixing-type and parameters
     AMIX     =   0.40;   BMIX     =  1.00
     AMIX_MAG =   1.60;   BMIX_MAG =  1.00
     AMIN     =   0.10
     WC   =   100.;   INIMIX=   1;  MIXPRE=   1;  MAXMIX= -45

 Intra band minimization:
   WEIMIN = 0.0010     energy-eigenvalue tresh-hold
   EBREAK =  0.52E-08  absolut break condition
   DEPER  =   0.30     relativ break condition

   TIME   =   0.40     timestep for ELM

  volume/ion in A,a.u.               =      11.51        77.68
  Fermi-wavevector in a.u.,A,eV,Ry     =   1.408670  2.662001 26.998744  1.984352
  Thomas-Fermi vector in A             =   2.530804

 Write flags
   LWAVE        =      F    write WAVECAR
   LDOWNSAMPLE  =      F    k-point downsampling of WAVECAR
   LCHARG       =      F    write CHGCAR
   LVTOT        =      F    write LOCPOT, total local potential
   LVHAR        =      F    write LOCPOT, Hartree potential only
   LELF         =      F    write electronic localiz. function (ELF)
   LORBIT       =      0    0 simple, 1 ext, 2 COOP (PROOUT), +10 PAW based schemes


 Dipole corrections
   LMONO  =      F    monopole corrections only (constant potential shift)
   LDIPOL =      F    correct potential (dipole corrections)
   IDIPOL =      0    1-x, 2-y, 3-z, 4-all directions
   EPSILON=  1.0000000 bulk dielectric constant

 Exchange correlation treatment:
   GGA     =    --    GGA type
   LEXCH   =     8    internal setting for exchange type
   LIBXC   =     F    Libxc
   VOSKOWN =     0    Vosko Wilk Nusair interpolation
   LHFCALC =     F    Hartree Fock is set to
   LHFONE  =     F    Hartree Fock one center treatment
   AEXX    =    0.0000 exact exchange contribution

 Linear response parameters
   LEPSILON=     F    determine dielectric tensor
   LRPA    =     F    only Hartree local field effects (RPA)
   LNABLA  =     F    use nabla operator in PAW spheres
   LVEL    =     F    velocity operator in full k-point grid
   CSHIFT  =0.1000    complex shift for real part using Kramers Kronig
   OMEGAMAX=  -1.0    maximum frequency
   DEG_THRESHOLD= 0.2000000E-02 threshold for treating states as degnerate
   RTIME   =   -0.100 relaxation time in fs
  (WPLASMAI=    0.000 imaginary part of plasma frequency in eV, 0.658/RTIME)
   DFIELD  = 0.0000000 0.0000000 0.0000000 field for delta impulse in time

  Optional k-point grid parameters
   LKPOINTS_OPT  =     F    use optional k-point grid
   KPOINTS_OPT_MODE=     1    mode for optional k-point grid

 Orbital magnetization related:
   ORBITALMAG=     F  switch on orbital magnetization
   LCHIMAG   =     F  perturbation theory with respect to B field
   DQ        =  0.001000  dq finite difference perturbation B field
   LLRAUG    =     F  two centre corrections for induced B field



--------------------------------------------------------------------------------------------------------


 finite differences with symmetry
 charge density and potential will be updated during run
 non-spin polarized calculation
 Variant of blocked Davidson
 Davidson routine will perform the subspace rotation
 perform sub-space diagonalisation
    after iterative eigenvector-optimisation
 modified Broyden-mixing scheme, WC =      100.0
 initial mixing is a Kerker type mixing with AMIX =  0.4000 and BMIX =      1.0000
 Hartree-type preconditioning will be used
 using additional bands           84
 real space projection scheme for non local part
 use partial core corrections
 calculate Harris-corrections to forces
   (improved forces if not selfconsistent)
 use gradient corrections
 use of overlap-Matrix (Vanderbilt PP)
 Gauss-broadening in eV      SIGMA  =   0.10


--------------------------------------------------------------------------------------------------------


  energy-cutoff  :      400.00
  volume of cell :     1243.14
      direct lattice vectors                 reciprocal lattice vectors
    11.376843422  0.000000000  0.000000000     0.087897843  0.000000000  0.000000000
     0.000000000 11.376843422  0.000000000     0.000000000  0.087897843  0.000000000
     0.000000000  0.000000000  9.604574574     0.000000000  0.000000000  0.104117053

  length of vectors
    11.376843422 11.376843422  9.604574574     0.087897843  0.087897843  0.104117053



 k-points in units of 2pi/SCALE and weight: K-Points
   0.02197446  0.02197446  0.02602926       1.000

 k-points in reciprocal lattice and weights: K-Points
   0.25000000  0.25000000  0.25000000       1.000

 position of ions in fractional coordinates (direct lattice)
   0.16666667  0.16666667  0.50000000
   0.16666667  0.50000000  0.50000000
   0.16666667  0.83333331  0.50000000
   0.50000000  0.16666667  0.50000000
   0.50000000  0.50000000  0.50000000
   0.50000000  0.83333331  0.50000000
   0.83333331  0.16666667  0.50000000
   0.83333331  0.50000000  0.50000000
   0.83333331  0.83333331  0.50000000
   0.16666667  0.00000000  0.75000000
   0.16666667  0.33333334  0.75000000
   0.16666667  0.66666669  0.75000000
   0.50000000  0.00000000  0.75000000
   0.50000000  0.33333334  0.75000000
   0.50000000  0.66666669  0.75000000
   0.83333331  0.00000000  0.75000000
   0.83333331  0.33333334  0.75000000
   0.83333331  0.66666669  0.75000000
   0.00000000  0.00000000  0.00000000
   0.00000000  0.33333334  0.00000000
   0.00000000  0.66666669  0.00000000
   0.33333334  0.00000000  0.00000000
   0.33333334  0.33333334  0.00000000
   0.33333334  0.66666669  0.00000000
   0.66666669  0.00000000  0.00000000
   0.66666669  0.33333334  0.00000000
   0.66666669  0.66666669  0.00000000
   0.00000000  0.16666667  0.25000000
   0.00000000  0.50000000  0.25000000
   0.00000000  0.83333331  0.25000000
   0.33333334  0.16666667  0.25000000
   0.33333334  0.50000000  0.25000000
   0.33333334  0.83333331  0.25000000
   0.66666669  0.16666667  0.25000000
   0.66666669  0.50000000  0.25000000
   0.66666669  0.83333331  0.25000000
   0.00000000  0.16666667  0.45789860
   0.00000000  0.50000000  0.45789860
   0.00000000  0.83333331  0.45789860
   0.33333334  0.16666667  0.45789860
   0.33333334  0.50000000  0.45789860
   0.33333334  0.83333331  0.45789860
   0.66666669  0.16666667  0.45789860
   0.66666669  0.50000000  0.45789860
   0.66666669  0.83333331  0.45789860
   0.16666667  0.16666667  0.70789860
   0.16666667  0.50000000  0.70789860
   0.16666667  0.83333331  0.70789860
   0.50000000  0.16666667  0.70789860
   0.50000000  0.50000000  0.70789860
   0.50000000  0.83333331  0.70789860
   0.83333331  0.16666667  0.70789860
   0.83333331  0.50000000  0.70789860
   0.83333331  0.83333331  0.70789860
   0.16666667  0.00000000  0.54210140
   0.16666667  0.33333334  0.54210140
   0.16666667  0.66666669  0.54210140
   0.50000000  0.00000000  0.54210140
   0.50000000  0.33333334  0.54210140
   0.50000000  0.66666669  0.54210140
   0.83333331  0.00000000  0.54210140
   0.83333331  0.33333334  0.54210140
   0.83333331  0.66666669  0.54210140
   0.00000000  0.00000000  0.79210140
   0.00000000  0.33333334  0.79210140
   0.00000000  0.66666669  0.79210140
   0.33333334  0.00000000  0.79210140
   0.33333334  0.33333334  0.79210140
   0.33333334  0.66666669  0.79210140
   0.66666669  0.00000000  0.79210140
   0.66666669  0.33333334  0.79210140
   0.66666669  0.66666669  0.79210140
   0.16666667  0.00000000  0.95789860
   0.16666667  0.33333334  0.95789860
   0.16666667  0.66666669  0.95789860
   0.50000000  0.00000000  0.95789860
   0.50000000  0.33333334  0.95789860
   0.50000000  0.66666669  0.95789860
   0.83333331  0.00000000  0.95789860
   0.83333331  0.33333334  0.95789860
   0.83333331  0.66666669  0.95789860
   0.00000000  0.00000000  0.20789860
   0.00000000  0.33333334  0.20789860
   0.00000000  0.66666669  0.20789860
   0.33333334  0.00000000  0.20789860
   0.33333334  0.33333334  0.20789860
   0.33333334  0.66666669  0.20789860
   0.66666669  0.00000000  0.20789860
   0.66666669  0.33333334  0.20789860
   0.66666669  0.66666669  0.20789860
   0.00000000  0.16666667  0.04210140
   0.00000000  0.50000000  0.04210140
   0.00000000  0.83333331  0.04210140
   0.33333334  0.16666667  0.04210140
   0.33333334  0.50000000  0.04210140
   0.33333334  0.83333331  0.04210140
   0.66666669  0.16666667  0.04210140
   0.66666669  0.50000000  0.04210140
   0.66666669  0.83333331  0.04210140
   0.16666667  0.16666667  0.29210140
   0.16666667  0.50000000  0.29210140
   0.16666667  0.83333331  0.29210140
   0.50000000  0.16666667  0.29210140
   0.50000000  0.50000000  0.29210140
   0.50000000  0.83333331  0.29210140
   0.83333331  0.16666667  0.29210140
   0.83333331  0.50000000  0.29210140
   0.83333331  0.83333331  0.29210140

 position of ions in cartesian coordinates  (Angst):
   1.89614063  1.89614063  4.80228729
   1.89614063  5.68842171  4.80228729
   1.89614063  9.48070262  4.80228729
   5.68842171  1.89614063  4.80228729
   5.68842171  5.68842171  4.80228729
   5.68842171  9.48070262  4.80228729
   9.48070262  1.89614063  4.80228729
   9.48070262  5.68842171  4.80228729
   9.48070262  9.48070262  4.80228729
   1.89614063  0.00000000  7.20343093
   1.89614063  3.79228125  7.20343093
   1.89614063  7.58456251  7.20343093
   5.68842171  0.00000000  7.20343093
   5.68842171  3.79228125  7.20343093
   5.68842171  7.58456251  7.20343093
   9.48070262  0.00000000  7.20343093
   9.48070262  3.79228125  7.20343093
   9.48070262  7.58456251  7.20343093
   0.00000000  0.00000000  0.00000000
   0.00000000  3.79228125  0.00000000
   0.00000000  7.58456251  0.00000000
   3.79228125  0.00000000  0.00000000
   3.79228125  3.79228125  0.00000000
   3.79228125  7.58456251  0.00000000
   7.58456251  0.00000000  0.00000000
   7.58456251  3.79228125  0.00000000
   7.58456251  7.58456251  0.00000000
   0.00000000  1.89614063  2.40114364
   0.00000000  5.68842171  2.40114364
   0.00000000  9.48070262  2.40114364
   3.79228125  1.89614063  2.40114364
   3.79228125  5.68842171  2.40114364
   3.79228125  9.48070262  2.40114364
   7.58456251  1.89614063  2.40114364
   7.58456251  5.68842171  2.40114364
   7.58456251  9.48070262  2.40114364
   0.00000000  1.89614063  4.39792125
   0.00000000  5.68842171  4.39792125
   0.00000000  9.48070262  4.39792125
   3.79228125  1.89614063  4.39792125
   3.79228125  5.68842171  4.39792125
   3.79228125  9.48070262  4.39792125
   7.58456251  1.89614063  4.39792125
   7.58456251  5.68842171  4.39792125
   7.58456251  9.48070262  4.39792125
   1.89614063  1.89614063  6.79906489
   1.89614063  5.68842171  6.79906489
   1.89614063  9.48070262  6.79906489
   5.68842171  1.89614063  6.79906489
   5.68842171  5.68842171  6.79906489
   5.68842171  9.48070262  6.79906489
   9.48070262  1.89614063  6.79906489
   9.48070262  5.68842171  6.79906489
   9.48070262  9.48070262  6.79906489
   1.89614063  0.00000000  5.20665332
   1.89614063  3.79228125  5.20665332
   1.89614063  7.58456251  5.20665332
   5.68842171  0.00000000  5.20665332
   5.68842171  3.79228125  5.20665332
   5.68842171  7.58456251  5.20665332
   9.48070262  0.00000000  5.20665332
   9.48070262  3.79228125  5.20665332
   9.48070262  7.58456251  5.20665332
   0.00000000  0.00000000  7.60779697
   0.00000000  3.79228125  7.60779697
   0.00000000  7.58456251  7.60779697
   3.79228125  0.00000000  7.60779697
   3.79228125  3.79228125  7.60779697
   3.79228125  7.58456251  7.60779697
   7.58456251  0.00000000  7.60779697
   7.58456251  3.79228125  7.60779697
   7.58456251  7.58456251  7.60779697
   1.89614063  0.00000000  9.20020854
   1.89614063  3.79228125  9.20020854
   1.89614063  7.58456251  9.20020854
   5.68842171  0.00000000  9.20020854
   5.68842171  3.79228125  9.20020854
   5.68842171  7.58456251  9.20020854
   9.48070262  0.00000000  9.20020854
   9.48070262  3.79228125  9.20020854
   9.48070262  7.58456251  9.20020854
   0.00000000  0.00000000  1.99677761
   0.00000000  3.79228125  1.99677761
   0.00000000  7.58456251  1.99677761
   3.79228125  0.00000000  1.99677761
   3.79228125  3.79228125  1.99677761
   3.79228125  7.58456251  1.99677761
   7.58456251  0.00000000  1.99677761
   7.58456251  3.79228125  1.99677761
   7.58456251  7.58456251  1.99677761
   0.00000000  1.89614063  0.40436608
   0.00000000  5.68842171  0.40436608
   0.00000000  9.48070262  0.40436608
   3.79228125  1.89614063  0.40436608
   3.79228125  5.68842171  0.40436608
   3.79228125  9.48070262  0.40436608
   7.58456251  1.89614063  0.40436608
   7.58456251  5.68842171  0.40436608
   7.58456251  9.48070262  0.40436608
   1.89614063  1.89614063  2.80550968
   1.89614063  5.68842171  2.80550968
   1.89614063  9.48070262  2.80550968
   5.68842171  1.89614063  2.80550968
   5.68842171  5.68842171  2.80550968
   5.68842171  9.48070262  2.80550968
   9.48070262  1.89614063  2.80550968
   9.48070262  5.68842171  2.80550968
   9.48070262  9.48070262  2.80550968



--------------------------------------------------------------------------------------------------------


 k-point   1 :   0.2500 0.2500 0.2500  plane waves:   22590

 maximum and minimum number of plane-waves per node :     22590    22590

 maximum number of plane-waves:     22590
 maximum index in each direction:
   IXMAX=   18   IYMAX=   18   IZMAX=   15
   IXMIN=  -18   IYMIN=  -18   IZMIN=  -15


 serial   3D FFT for wavefunctions
 parallel 3D FFT for charge:
    minimum data exchange during FFTs selected (reduces bandwidth)


 total amount of memory used by VASP MPI-rank0    94497. kBytes
=======================================================================

   base      :      30000. kBytes
   nonlr-proj:      19556. kBytes
   fftplans  :       5773. kBytes
   grid      :      14626. kBytes
   one-center:       1679. kBytes
   wavefun   :      22863. kBytes

     INWAV:  cpu time      0.0000: real time      0.0004
 Broyden mixing: mesh for mixing (old mesh)
   NGX = 37   NGY = 37   NGZ = 31
  (NGX  =112   NGY  =112   NGZ  = 96)
  gives a total of  42439 points

 initial charge density was supplied:
 charge density of overlapping atoms calculated
 number of electron     792.0000000 magnetization
 keeping initial charge density in first step


--------------------------------------------------------------------------------------------------------


 Maximum index for non-local projection operator         1743
 Maximum index for augmentation-charges          611 (set IRDMAX)


--------------------------------------------------------------------------------------------------------


 First call to EWALD:  gamma=   0.165
 Maximum number of real-space cells 3x 3x 3
 Maximum number of reciprocal cells 3x 3x 3

    FEWALD:  cpu time      0.0887: real time      0.0942


--------------------------------------- Iteration      1(   1)  ---------------------------------------


    POTLOK:  cpu time      0.1101: real time      0.1145
    SETDIJ:  cpu time      0.0056: real time      0.0079
     EDDAV:  cpu time      6.5827: real time      6.7287
       DOS:  cpu time      0.0013: real time      0.0015
    --------------------------------------------
      LOOP:  cpu time      6.6998: real time      6.8526

 eigenvalue-minimisations  :   968
 total energy-change (2. order) : 0.1156334E+05  (-0.3300421E+05)
 number of electron     792.0000000 magnetization
 augmentation part      792.0000000 magnetization

 Free energy of the ion-electron system (eV)
  ---------------------------------------------------
  alpha Z        PSCENC =      3563.47638822
  Ewald energy   TEWEN  =    -48589.53773391
  -Hartree energ DENC   =    -18840.34717089
  -exchange      EXHF   =         0.00000000
  -V(xc)+E(xc)   XCENC  =      3286.84850503
  PAW double counting   =     54431.09303398   -54537.79254336
  entropy T*S    EENTRO =        -0.14381663
  eigenvalues    EBANDS =      3593.34083930
  atomic energy  EATOM  =     68656.39924158
  Solvation  Ediel_sol  =         0.00000000
  ---------------------------------------------------
  free energy    TOTEN  =     11563.33674332 eV

  energy without entropy =    11563.48055994  energy(sigma->0) =    11563.40865163


--------------------------------------------------------------------------------------------------------




--------------------------------------- Iteration      1(   2)  ---------------------------------------


     EDDAV:  cpu time      6.5180: real time      6.5763
       DOS:  cpu time      0.0006: real time      0.0006
    --------------------------------------------
      LOOP:  cpu time      6.5186: real time      6.5769

 eigenvalue-minimisations  :   960
 total energy-change (2. order) :-0.1002249E+05  (-0.9572662E+04)
 number of electron     792.0000000 magnetization
 augmentation part      792.0000000 magnetization

 Free energy of the ion-electron system (eV)
  ---------------------------------------------------
  alpha Z        PSCENC =      3563.47638822
  Ewald energy   TEWEN  =    -48589.53773391
  -Hartree energ DENC   =    -18840.34717089
  -exchange      EXHF   =         0.00000000
  -V(xc)+E(xc)   XCENC  =      3286.84850503
  PAW double counting   =     54431.09303398   -54537.79254336
  entropy T*S    EENTRO =        -0.27397706
  eigenvalues    EBANDS =     -6429.01767748
  atomic energy  EATOM  =     68656.39924158
  Solvation  Ediel_sol  =         0.00000000
  ---------------------------------------------------
  free energy    TOTEN  =      1540.84806610 eV

  energy without entropy =     1541.12204317  energy(sigma->0) =     1540.98505464


--------------------------------------------------------------------------------------------------------




--------------------------------------- Iteration      1(   3)  ---------------------------------------


     EDDAV:  cpu time      7.3037: real time      7.3666
       DOS:  cpu time      0.0003: real time      0.0003
    --------------------------------------------
      LOOP:  cpu time      7.3040: real time      7.3669

 eigenvalue-minimisations  :  1104
 total energy-change (2. order) :-0.2619273E+04  (-0.2548940E+04)
 number of electron     792.0000000 magnetization
 augmentation part      792.0000000 magnetization

 Free energy of the ion-electron system (eV)
  ---------------------------------------------------
  alpha Z        PSCENC =      3563.47638822
  Ewald energy   TEWEN  =    -48589.53773391
  -Hartree energ DENC   =    -18840.34717089
  -exchange      EXHF   =         0.00000000
  -V(xc)+E(xc)   XCENC  =      3286.84850503
  PAW double counting   =     54431.09303398   -54537.79254336
  entropy T*S    EENTRO =        -0.00000000
  eigenvalues    EBANDS =     -9048.56498276
  atomic energy  EATOM  =     68656.39924158
  Solvation  Ediel_sol  =         0.00000000
  ---------------------------------------------------
  free energy    TOTEN  =     -1078.42526211 eV

  energy without entropy =    -1078.42526211  energy(sigma->0) =    -1078.42526211


--------------------------------------------------------------------------------------------------------




--------------------------------------- Iteration      1(   4)  ---------------------------------------


     EDDAV:  cpu time      8.2728: real time      8.3419
       DOS:  cpu time      0.0032: real time      0.0032
    --------------------------------------------
      LOOP:  cpu time      8.2760: real time      8.3451

 eigenvalue-minimisations  :  1280
 total energy-change (2. order) :-0.1952669E+03  (-0.1941603E+03)
 number of electron     792.0000000 magnetization
 augmentation part      792.0000000 magnetization

 Free energy of the ion-electron system (eV)
  ---------------------------------------------------
  alpha Z        PSCENC =      3563.47638822
  Ewald energy   TEWEN  =    -48589.53773391
  -Hartree energ DENC   =    -18840.34717089
  -exchange      EXHF   =         0.00000000
  -V(xc)+E(xc)   XCENC  =      3286.84850503
  PAW double counting   =     54431.09303398   -54537.79254336
  entropy T*S    EENTRO =        -0.00000000
  eigenvalues    EBANDS =     -9243.83184177
  atomic energy  EATOM  =     68656.39924158
  Solvation  Ediel_sol  =         0.00000000
  ---------------------------------------------------
  free energy    TOTEN  =     -1273.69212112 eV

  energy without entropy =    -1273.69212112  energy(sigma->0) =    -1273.69212112


--------------------------------------------------------------------------------------------------------




--------------------------------------- Iteration      1(   5)  ---------------------------------------


     EDDAV:  cpu time      7.9961: real time      8.0638
       DOS:  cpu time      0.0004: real time      0.0004
    CHARGE:  cpu time      0.1527: real time      0.1638
    MIXING:  cpu time      0.0050: real time      0.0051
    --------------------------------------------
      LOOP:  cpu time      8.1542: real time      8.2331

 eigenvalue-minimisations  :  1232
 total energy-change (2. order) :-0.5020600E+01  (-0.5005932E+01)
 number of electron     792.0003052 magnetization
 augmentation part      202.2108837 magnetization

 Broyden mixing:
  rms(total) = 0.17221E+02    rms(broyden)= 0.17220E+02
  rms(prec ) = 0.19158E+02
  weight for this iteration     100.00

 Free energy of the ion-electron system (eV)
  ---------------------------------------------------
  alpha Z        PSCENC =      3563.47638822
  Ewald energy   TEWEN  =    -48589.53773391
  -Hartree energ DENC   =    -18840.34717089
  -exchange      EXHF   =         0.00000000
  -V(xc)+E(xc)   XCENC  =      3286.84850503
  PAW double counting   =     54431.09303398   -54537.79254336
  entropy T*S    EENTRO =        -0.00000000
  eigenvalues    EBANDS =     -9248.85244139
  atomic energy  EATOM  =     68656.39924158
  Solvation  Ediel_sol  =         0.00000000
  ---------------------------------------------------
  free energy    TOTEN  =     -1278.71272074 eV

  energy without entropy =    -1278.71272074  energy(sigma->0) =    -1278.71272074


--------------------------------------------------------------------------------------------------------




--------------------------------------- Iteration      1(   6)  ---------------------------------------


    POTLOK:  cpu time      0.0950: real time      0.0983
    SETDIJ:  cpu time      0.0102: real time      0.0131
     EDDAV:  cpu time      8.1653: real time      8.2324
       DOS:  cpu time      0.0062: real time      0.0062
    CHARGE:  cpu time      0.1500: real time      0.1585
    MIXING:  cpu time      0.0052: real time      0.0068
    --------------------------------------------
      LOOP:  cpu time      8.4318: real time      8.5154

 eigenvalue-minimisations  :  1264
 total energy-change (2. order) : 0.3023091E+03  (-0.1942604E+03)
 number of electron     792.0002462 magnetization
 augmentation part      214.2217165 magnetization

 Broyden mixing:
  rms(total) = 0.52780E+01    rms(broyden)= 0.52731E+01
  rms(prec ) = 0.58087E+01
  weight for this iteration     100.00

 eigenvalues of (default mixing * dielectric matrix)
  average eigenvalue GAMMA=   0.9639
  0.9639

 Free energy of the ion-electron system (eV)
  ---------------------------------------------------
  alpha Z        PSCENC =      3563.47638822
  Ewald energy   TEWEN  =    -48589.53773391
  -Hartree energ DENC   =    -19063.81496841
  -exchange      EXHF   =         0.00000000
  -V(xc)+E(xc)   XCENC  =      3337.76254949
  PAW double counting   =     68229.67723384   -68461.83585559
  entropy T*S    EENTRO =        -0.00000000
  eigenvalues    EBANDS =     -8648.53050598
  atomic energy  EATOM  =     68656.39924158
  Solvation  Ediel_sol  =         0.00000000
  ---------------------------------------------------
  free energy    TOTEN  =      -976.40365076 eV

  energy without entropy =     -976.40365076  energy(sigma->0) =     -976.40365076


--------------------------------------------------------------------------------------------------------




--------------------------------------- Iteration      1(   7)  ---------------------------------------


    POTLOK:  cpu time      0.0949: real time      0.0962
    SETDIJ:  cpu time      0.0127: real time      0.0133
     EDDAV:  cpu time      8.6491: real time      8.7191
       DOS:  cpu time      0.0050: real time      0.0050
    CHARGE:  cpu time      0.1416: real time      0.1537
    MIXING:  cpu time      0.0063: real time      0.0064
    --------------------------------------------
      LOOP:  cpu time      8.9096: real time      8.9936

 eigenvalue-minimisations  :  1352
 total energy-change (2. order) : 0.4186178E+01  (-0.2810233E+02)
 number of electron     792.0002651 magnetization
 augmentation part      207.2886428 magnetization

 Broyden mixing:
  rms(total) = 0.46162E+01    rms(broyden)= 0.46159E+01
  rms(prec ) = 0.48115E+01
  weight for this iteration     100.00

 eigenvalues of (default mixing * dielectric matrix)
  average eigenvalue GAMMA=   1.8612
  0.7365  2.9860

 Free energy of the ion-electron system (eV)
  ---------------------------------------------------
  alpha Z        PSCENC =      3563.47638822
  Ewald energy   TEWEN  =    -48589.53773391
  -Hartree energ DENC   =    -18909.38648344
  -exchange      EXHF   =         0.00000000
  -V(xc)+E(xc)   XCENC  =      3318.68151801
  PAW double counting   =     75206.74593537   -75449.91775861
  entropy T*S    EENTRO =        -0.00000000
  eigenvalues    EBANDS =     -8768.67857998
  atomic energy  EATOM  =     68656.39924158
  Solvation  Ediel_sol  =         0.00000000
  ---------------------------------------------------
  free energy    TOTEN  =      -972.21747276 eV

  energy without entropy =     -972.21747276  energy(sigma->0) =     -972.21747276


--------------------------------------------------------------------------------------------------------




--------------------------------------- Iteration      1(   8)  ---------------------------------------


    POTLOK:  cpu time      0.0963: real time      0.0977
    SETDIJ:  cpu time      0.0138: real time      0.0143
     EDDAV:  cpu time      8.0379: real time      8.1034
       DOS:  cpu time      0.0048: real time      0.0048
    CHARGE:  cpu time      0.1447: real time      0.1584
    MIXING:  cpu time      0.0067: real time      0.0067
    --------------------------------------------
      LOOP:  cpu time      8.3041: real time      8.3853

 eigenvalue-minimisations  :  1240
 total energy-change (2. order) :-0.3946243E+00  (-0.1122347E+02)
 number of electron     792.0002585 magnetization
 augmentation part      215.7528879 magnetization

 Broyden mixing:
  rms(total) = 0.34672E+01    rms(broyden)= 0.34670E+01
  rms(prec ) = 0.37797E+01
  weight for this iteration     100.00

 eigenvalues of (default mixing * dielectric matrix)
  average eigenvalue GAMMA=   1.2359
  2.1796  0.9311  0.5970

 Free energy of the ion-electron system (eV)
  ---------------------------------------------------
  alpha Z        PSCENC =      3563.47638822
  Ewald energy   TEWEN  =    -48589.53773391
  -Hartree energ DENC   =    -18526.28200267
  -exchange      EXHF   =         0.00000000
  -V(xc)+E(xc)   XCENC  =      3303.72041041
  PAW double counting   =     94014.52666230   -94331.05795526
  entropy T*S    EENTRO =        -0.00000000
  eigenvalues    EBANDS =     -9063.85710774
  atomic energy  EATOM  =     68656.39924158
  Solvation  Ediel_sol  =         0.00000000
  ---------------------------------------------------
  free energy    TOTEN  =      -972.61209707 eV

  energy without entropy =     -972.61209707  energy(sigma->0) =     -972.61209707


--------------------------------------------------------------------------------------------------------




--------------------------------------- Iteration      1(   9)  ---------------------------------------


    POTLOK:  cpu time      0.0959: real time      0.0972
    SETDIJ:  cpu time      0.0154: real time      0.0161
     EDDAV:  cpu time      8.1202: real time      8.1859
       DOS:  cpu time      0.0048: real time      0.0048
    CHARGE:  cpu time      0.1437: real time      0.1565
    MIXING:  cpu time      0.0055: real time      0.0396
    --------------------------------------------
      LOOP:  cpu time      8.3855: real time      8.5001

 eigenvalue-minimisations  :  1256
 total energy-change (2. order) : 0.5964239E+01  (-0.3620219E+01)
 number of electron     792.0002633 magnetization
 augmentation part      211.4369292 magnetization

 Broyden mixing:
  rms(total) = 0.24009E+00    rms(broyden)= 0.23927E+00
  rms(prec ) = 0.26412E+00
  weight for this iteration     100.00

 eigenvalues of (default mixing * dielectric matrix)
  average eigenvalue GAMMA=   1.3959
  2.3300  1.5732  1.0652  0.6152

 Free energy of the ion-electron system (eV)
  ---------------------------------------------------
  alpha Z        PSCENC =      3563.47638822
  Ewald energy   TEWEN  =    -48589.53773391
  -Hartree energ DENC   =    -18675.18699924
  -exchange      EXHF   =         0.00000000
  -V(xc)+E(xc)   XCENC  =      3308.71322273
  PAW double counting   =     88575.53679452   -88872.02068984
  entropy T*S    EENTRO =        -0.00000000
  eigenvalues    EBANDS =     -8934.02808255
  atomic energy  EATOM  =     68656.39924158
  Solvation  Ediel_sol  =         0.00000000
  ---------------------------------------------------
  free energy    TOTEN  =      -966.64785850 eV

  energy without entropy =     -966.64785850  energy(sigma->0) =     -966.64785850


--------------------------------------------------------------------------------------------------------




--------------------------------------- Iteration      1(  10)  ---------------------------------------


    POTLOK:  cpu time      0.0971: real time      0.1045
    SETDIJ:  cpu time      0.0117: real time      0.0123
     EDDAV:  cpu time      8.5164: real time      8.5837
       DOS:  cpu time      0.0046: real time      0.0046
    CHARGE:  cpu time      0.1453: real time      0.1591
    MIXING:  cpu time      0.0064: real time      0.0065
    --------------------------------------------
      LOOP:  cpu time      8.7816: real time      8.8706

 eigenvalue-minimisations  :  1328
 total energy-change (2. order) :-0.1297192E+00  (-0.1457229E+00)
 number of electron     792.0002618 magnetization
 augmentation part      211.6961867 magnetization

 Broyden mixing:
  rms(total) = 0.32258E+00    rms(broyden)= 0.32256E+00
  rms(prec ) = 0.37765E+00
  weight for this iteration     100.00

 eigenvalues of (default mixing * dielectric matrix)
  average eigenvalue GAMMA=   1.4216
  2.5253  1.8454  1.0677  1.0677  0.6017

 Free energy of the ion-electron system (eV)
  ---------------------------------------------------
  alpha Z        PSCENC =      3563.47638822
  Ewald energy   TEWEN  =    -48589.53773391
  -Hartree energ DENC   =    -18725.99896530
  -exchange      EXHF   =         0.00000000
  -V(xc)+E(xc)   XCENC  =      3312.56463946
  PAW double counting   =     89099.99003442   -89402.35039674
  entropy T*S    EENTRO =        -0.00000000
  eigenvalues    EBANDS =     -8881.32078541
  atomic energy  EATOM  =     68656.39924158
  Solvation  Ediel_sol  =         0.00000000
  ---------------------------------------------------
  free energy    TOTEN  =      -966.77757767 eV

  energy without entropy =     -966.77757767  energy(sigma->0) =     -966.77757767


--------------------------------------------------------------------------------------------------------




--------------------------------------- Iteration      1(  11)  ---------------------------------------


    POTLOK:  cpu time      0.0938: real time      0.0958
    SETDIJ:  cpu time      0.0125: real time      0.0136
     EDDAV:  cpu time      8.3200: real time      8.3884
       DOS:  cpu time      0.0039: real time      0.0039
    CHARGE:  cpu time      0.1805: real time      0.1918
    MIXING:  cpu time      0.0062: real time      0.0063
    --------------------------------------------
      LOOP:  cpu time      8.6169: real time      8.6998

 eigenvalue-minimisations  :  1288
 total energy-change (2. order) : 0.9006224E-01  (-0.9340289E-01)
 number of electron     792.0002628 magnetization
 augmentation part      211.1375792 magnetization

 Broyden mixing:
  rms(total) = 0.87010E-01    rms(broyden)= 0.86886E-01
  rms(prec ) = 0.98655E-01
  weight for this iteration     100.00

 eigenvalues of (default mixing * dielectric matrix)
  average eigenvalue GAMMA=   1.4625
  2.6238  1.8374  1.8374  0.5981  0.9392  0.9392

 Free energy of the ion-electron system (eV)
  ---------------------------------------------------
  alpha Z        PSCENC =      3563.47638822
  Ewald energy   TEWEN  =    -48589.53773391
  -Hartree energ DENC   =    -18736.62760081
  -exchange      EXHF   =         0.00000000
  -V(xc)+E(xc)   XCENC  =      3312.58447900
  PAW double counting   =     89184.85250700   -89486.92144509
  entropy T*S    EENTRO =        -0.00000000
  eigenvalues    EBANDS =     -8870.91335144
  atomic energy  EATOM  =     68656.39924158
  Solvation  Ediel_sol  =         0.00000000
  ---------------------------------------------------
  free energy    TOTEN  =      -966.68751544 eV

  energy without entropy =     -966.68751544  energy(sigma->0) =     -966.68751544


--------------------------------------------------------------------------------------------------------




--------------------------------------- Iteration      1(  12)  ---------------------------------------


    POTLOK:  cpu time      0.0957: real time      0.0977
    SETDIJ:  cpu time      0.0117: real time      0.0122
     EDDAV:  cpu time      8.6023: real time      8.6736
       DOS:  cpu time      0.0024: real time      0.0024
    CHARGE:  cpu time      0.1433: real time      0.1546
    MIXING:  cpu time      0.0073: real time      0.0073
    --------------------------------------------
      LOOP:  cpu time      8.8627: real time      8.9479

 eigenvalue-minimisations  :  1344
 total energy-change (2. order) : 0.3557745E-02  (-0.5135680E-02)
 number of electron     792.0002627 magnetization
 augmentation part      211.2582534 magnetization

 Broyden mixing:
  rms(total) = 0.30741E-01    rms(broyden)= 0.30730E-01
  rms(prec ) = 0.32310E-01
  weight for this iteration     100.00

 eigenvalues of (default mixing * dielectric matrix)
  average eigenvalue GAMMA=   1.5150
  2.6286  2.6286  1.7660  0.5984  0.9876  0.9876  1.0082

 Free energy of the ion-electron system (eV)
  ---------------------------------------------------
  alpha Z        PSCENC =      3563.47638822
  Ewald energy   TEWEN  =    -48589.53773391
  -Hartree energ DENC   =    -18734.09105527
  -exchange      EXHF   =         0.00000000
  -V(xc)+E(xc)   XCENC  =      3312.53142805
  PAW double counting   =     89282.57353282   -89584.61008701
  entropy T*S    EENTRO =        -0.00000000
  eigenvalues    EBANDS =     -8873.42567218
  atomic energy  EATOM  =     68656.39924158
  Solvation  Ediel_sol  =         0.00000000
  ---------------------------------------------------
  free energy    TOTEN  =      -966.68395769 eV

  energy without entropy =     -966.68395769  energy(sigma->0) =     -966.68395769


--------------------------------------------------------------------------------------------------------




--------------------------------------- Iteration      1(  13)  ---------------------------------------


    POTLOK:  cpu time      0.0961: real time      0.0973
    SETDIJ:  cpu time      0.0134: real time      0.0140
     EDDAV:  cpu time      7.1488: real time      7.2075
       DOS:  cpu time      0.0023: real time      0.0024
    CHARGE:  cpu time      0.1442: real time      0.1550
    MIXING:  cpu time      0.0070: real time      0.0071
    --------------------------------------------
      LOOP:  cpu time      7.4119: real time      7.4832

 eigenvalue-minimisations  :  1080
 total energy-change (2. order) :-0.1357116E-03  (-0.5173319E-03)
 number of electron     792.0002626 magnetization
 augmentation part      211.2297764 magnetization

 Broyden mixing:
  rms(total) = 0.67221E-02    rms(broyden)= 0.67153E-02
  rms(prec ) = 0.70281E-02
  weight for this iteration     100.00

 eigenvalues of (default mixing * dielectric matrix)
  average eigenvalue GAMMA=   1.4820
  2.8395  2.5295  1.7698  0.5983  1.1844  1.0102  0.9619  0.9619

 Free energy of the ion-electron system (eV)
  ---------------------------------------------------
  alpha Z        PSCENC =      3563.47638822
  Ewald energy   TEWEN  =    -48589.53773391
  -Hartree energ DENC   =    -18739.99104638
  -exchange      EXHF   =         0.00000000
  -V(xc)+E(xc)   XCENC  =      3312.85604552
  PAW double counting   =     89173.20296318   -89474.67512418
  entropy T*S    EENTRO =        -0.00000000
  eigenvalues    EBANDS =     -8868.41482744
  atomic energy  EATOM  =     68656.39924158
  Solvation  Ediel_sol  =         0.00000000
  ---------------------------------------------------
  free energy    TOTEN  =      -966.68409340 eV

  energy without entropy =     -966.68409340  energy(sigma->0) =     -966.68409340


--------------------------------------------------------------------------------------------------------




--------------------------------------- Iteration      1(  14)  ---------------------------------------


    POTLOK:  cpu time      0.0958: real time      0.0977
    SETDIJ:  cpu time      0.0109: real time      0.0114
     EDDAV:  cpu time      8.2441: real time      8.3105
       DOS:  cpu time      0.0024: real time      0.0024
    CHARGE:  cpu time      0.1468: real time      0.1552
    MIXING:  cpu time      0.0073: real time      0.0074
    --------------------------------------------
      LOOP:  cpu time      8.5072: real time      8.5846

 eigenvalue-minimisations  :  1280
 total energy-change (2. order) :-0.4981708E-04  (-0.3318346E-04)
 number of electron     792.0002626 magnetization
 augmentation part      211.2382399 magnetization

 Broyden mixing:
  rms(total) = 0.30345E-02    rms(broyden)= 0.30330E-02
  rms(prec ) = 0.37431E-02
  weight for this iteration     100.00

 eigenvalues of (default mixing * dielectric matrix)
  average eigenvalue GAMMA=   1.4812
  2.9773  2.2643  2.2643  1.1822  1.1822  1.0097  1.0097  0.5981  0.8428

 Free energy of the ion-electron system (eV)
  ---------------------------------------------------
  alpha Z        PSCENC =      3563.47638822
  Ewald energy   TEWEN  =    -48589.53773391
  -Hartree energ DENC   =    -18739.41456459
  -exchange      EXHF   =         0.00000000
  -V(xc)+E(xc)   XCENC  =      3312.82727264
  PAW double counting   =     89191.41004708   -89492.94176816
  entropy T*S    EENTRO =        -0.00000000
  eigenvalues    EBANDS =     -8868.90302609
  atomic energy  EATOM  =     68656.39924158
  Solvation  Ediel_sol  =         0.00000000
  ---------------------------------------------------
  free energy    TOTEN  =      -966.68414322 eV

  energy without entropy =     -966.68414322  energy(sigma->0) =     -966.68414322


--------------------------------------------------------------------------------------------------------




--------------------------------------- Iteration      1(  15)  ---------------------------------------


    POTLOK:  cpu time      0.0934: real time      0.0954
    SETDIJ:  cpu time      0.0146: real time      0.0150
     EDDAV:  cpu time      6.0381: real time      6.0874
       DOS:  cpu time      0.0022: real time      0.0022
    CHARGE:  cpu time      0.1457: real time      0.1567
    MIXING:  cpu time      0.0071: real time      0.0071
    --------------------------------------------
      LOOP:  cpu time      6.3011: real time      6.3640

 eigenvalue-minimisations  :   872
 total energy-change (2. order) :-0.1395692E-04  (-0.4719133E-05)
 number of electron     792.0002626 magnetization
 augmentation part      211.2417878 magnetization

 Broyden mixing:
  rms(total) = 0.50779E-02    rms(broyden)= 0.50779E-02
  rms(prec ) = 0.55037E-02
  weight for this iteration     100.00

 eigenvalues of (default mixing * dielectric matrix)
  average eigenvalue GAMMA=   1.5420
  3.0245  2.4659  2.4659  1.7790  0.5982  1.2053  1.0129  1.0129  0.9279  0.9279

 Free energy of the ion-electron system (eV)
  ---------------------------------------------------
  alpha Z        PSCENC =      3563.47638822
  Ewald energy   TEWEN  =    -48589.53773391
  -Hartree energ DENC   =    -18738.94935735
  -exchange      EXHF   =         0.00000000
  -V(xc)+E(xc)   XCENC  =      3312.79570678
  PAW double counting   =     89201.63435017   -89503.16769874
  entropy T*S    EENTRO =        -0.00000000
  eigenvalues    EBANDS =     -8869.33505393
  atomic energy  EATOM  =     68656.39924158
  Solvation  Ediel_sol  =         0.00000000
  ---------------------------------------------------
  free energy    TOTEN  =      -966.68415718 eV

  energy without entropy =     -966.68415718  energy(sigma->0) =     -966.68415718


--------------------------------------------------------------------------------------------------------




--------------------------------------- Iteration      1(  16)  ---------------------------------------


    POTLOK:  cpu time      0.0944: real time      0.0961
    SETDIJ:  cpu time      0.0128: real time      0.0134
     EDDAV:  cpu time      6.9050: real time      6.9621
       DOS:  cpu time      0.0015: real time      0.0015
    --------------------------------------------
      LOOP:  cpu time      7.0138: real time      7.0730

 eigenvalue-minimisations  :  1032
 total energy-change (2. order) : 0.7719922E-05  (-0.6867695E-05)
 number of electron     792.0002626 magnetization
 augmentation part      211.2417878 magnetization

 Free energy of the ion-electron system (eV)
  ---------------------------------------------------
  alpha Z        PSCENC =      3563.47638822
  Ewald energy   TEWEN  =    -48589.53773391
  -Hartree energ DENC   =    -18739.27031377
  -exchange      EXHF   =         0.00000000
  -V(xc)+E(xc)   XCENC  =      3312.80836621
  PAW double counting   =     89196.58775302   -89498.12325603
  entropy T*S    EENTRO =        -0.00000000
  eigenvalues    EBANDS =     -8869.02459478
  atomic energy  EATOM  =     68656.39924158
  Solvation  Ediel_sol  =         0.00000000
  ---------------------------------------------------
  free energy    TOTEN  =      -966.68414946 eV

  energy without entropy =     -966.68414946  energy(sigma->0) =     -966.68414946


--------------------------------------------------------------------------------------------------------




 average (electrostatic) potential at core
  the test charge radii are     1.0397  0.7215
  (the norm of the test charge is              1.0000)
       1 -54.8089       2 -54.8088       3 -54.8089       4 -54.8088       5 -54.8087
       6 -54.8088       7 -54.8089       8 -54.8088       9 -54.8089      10 -54.8088
      11 -54.8089      12 -54.8089      13 -54.8087      14 -54.8088      15 -54.8088
      16 -54.8088      17 -54.8089      18 -54.8089      19 -54.8087      20 -54.8088
      21 -54.8088      22 -54.8088      23 -54.8089      24 -54.8089      25 -54.8088
      26 -54.8089      27 -54.8089      28 -54.8088      29 -54.8087      30 -54.8088
      31 -54.8089      32 -54.8088      33 -54.8089      34 -54.8089      35 -54.8088
      36 -54.8089      37 -71.7238      38 -71.7238      39 -71.7238      40 -71.7237
      41 -71.7237      42 -71.7237      43 -71.7237      44 -71.7237      45 -71.7237
      46 -71.7237      47 -71.7238      48 -71.7237      49 -71.7237      50 -71.7238
      51 -71.7237      52 -71.7237      53 -71.7238      54 -71.7237      55 -71.7238
      56 -71.7237      57 -71.7237      58 -71.7238      59 -71.7237      60 -71.7237
      61 -71.7238      62 -71.7237      63 -71.7237      64 -71.7238      65 -71.7238
      66 -71.7238      67 -71.7237      68 -71.7237      69 -71.7237      70 -71.7237
      71 -71.7237      72 -71.7237      73 -71.7237      74 -71.7237      75 -71.7237
      76 -71.7238      77 -71.7238      78 -71.7238      79 -71.7237      80 -71.7237
      81 -71.7237      82 -71.7238      83 -71.7237      84 -71.7237      85 -71.7238
      86 -71.7237      87 -71.7237      88 -71.7238      89 -71.7237      90 -71.7237
      91 -71.7237      92 -71.7238      93 -71.7237      94 -71.7237      95 -71.7238
      96 -71.7237      97 -71.7237      98 -71.7238      99 -71.7237     100 -71.7237
     101 -71.7237     102 -71.7237     103 -71.7238     104 -71.7238     105 -71.7238
     106 -71.7237     107 -71.7237     108 -71.7237



 E-fermi :   2.5233     XC(G=0): -10.6183     alpha+bet :-11.2235

 Fermi energy:         2.5232877491

 k-point     1 :       0.2500    0.2500    0.2500
  band No.  band energies     occupation
      1     -30.8768      2.00000
      2     -30.8763      2.00000
      3     -30.8763      2.00000
      4     -30.8751      2.00000
      5     -30.8726      2.00000
      6     -30.8726      2.00000
      7     -30.8706      2.00000
      8     -30.8706      2.00000
      9     -30.8649      2.00000
     10     -30.8511      2.00000
     11     -30.8511      2.00000
     12     -30.8503      2.00000
     13     -30.8503      2.00000
     14     -30.8502      2.00000
     15     -30.8371      2.00000
     16     -30.8253      2.00000
     17     -30.8222      2.00000
     18     -30.8118      2.00000
     19     -30.8118      2.00000
     20     -30.8024      2.00000
     21     -30.8024      2.00000
     22     -30.7913      2.00000
     23     -30.7913      2.00000
     24     -30.7867      2.00000
     25     -30.7783      2.00000
     26     -30.7783      2.00000
     27     -30.7783      2.00000
     28     -30.7717      2.00000
     29     -30.7717      2.00000
     30     -30.7519      2.00000
     31     -30.7468      2.00000
     32     -30.7468      2.00000
     33     -30.7267      2.00000
     34     -30.7267      2.00000
     35     -30.7128      2.00000
     36     -30.7114      2.00000
     37     -30.7021      2.00000
     38     -30.7018      2.00000
     39     -30.7018      2.00000
     40     -30.7016      2.00000
     41     -30.7016      2.00000
     42     -30.6975      2.00000
     43     -30.6958      2.00000
     44     -30.6953      2.00000
     45     -30.6950      2.00000
     46     -30.6827      2.00000
     47     -30.6817      2.00000
     48     -30.6817      2.00000
     49     -30.6797      2.00000
     50     -30.6781      2.00000
     51     -30.6781      2.00000
     52     -30.6746      2.00000
     53     -30.6746      2.00000
     54     -30.6728      2.00000
     55     -30.6728      2.00000
     56     -30.6710      2.00000
     57     -30.6710      2.00000
     58     -30.6707      2.00000
     59     -30.6679      2.00000
     60     -30.6679      2.00000
     61     -30.6556      2.00000
     62     -30.6456      2.00000
     63     -30.6447      2.00000
     64     -30.6447      2.00000
     65     -30.6429      2.00000
     66     -30.6429      2.00000
     67     -30.6366      2.00000
     68     -30.6366      2.00000
     69     -30.6338      2.00000
     70     -30.6239      2.00000
     71     -30.6239      2.00000
     72     -30.6004      2.00000
     73     -30.5936      2.00000
     74     -30.5910      2.00000
     75     -30.5910      2.00000
     76     -30.5905      2.00000
     77     -30.5859      2.00000
     78     -30.5859      2.00000
     79     -30.5826      2.00000
     80     -30.5826      2.00000
     81     -30.5811      2.00000
     82     -30.5811      2.00000
     83     -30.5786      2.00000
     84     -30.5786      2.00000
     85     -30.5782      2.00000
     86     -30.5768      2.00000
     87     -30.5745      2.00000
     88     -30.5744      2.00000
     89     -30.5744      2.00000
     90     -30.5708      2.00000
     91     -30.5681      2.00000
     92     -30.5681      2.00000
     93     -30.5618      2.00000
     94     -30.5606      2.00000
     95     -30.5533      2.00000
     96     -30.5528      2.00000
     97     -30.5528      2.00000
     98     -30.5492      2.00000
     99     -30.5492      2.00000
    100     -30.5421      2.00000
    101     -30.5372      2.00000
    102     -30.5372      2.00000
    103     -30.5351      2.00000
    104     -30.5344      2.00000
    105     -30.5344      2.00000
    106     -30.5301      2.00000
    107     -30.5301      2.00000
    108     -30.5267      2.00000
    109     -15.4752      2.00000
    110     -15.2638      2.00000
    111     -15.2638      2.00000
    112     -15.1724      2.00000
    113     -15.0507      2.00000
    114     -15.0507      2.00000
    115     -15.0253      2.00000
    116     -15.0253      2.00000
    117     -15.0155      2.00000
    118     -14.9696      2.00000
    119     -14.9696      2.00000
    120     -14.7820      2.00000
    121     -14.7594      2.00000
    122     -14.7594      2.00000
    123     -14.7562      2.00000
    124     -14.6681      2.00000
    125     -14.6681      2.00000
    126     -14.5591      2.00000
    127     -14.5591      2.00000
    128     -14.5214      2.00000
    129     -14.4639      2.00000
    130     -14.4413      2.00000
    131     -14.4208      2.00000
    132     -14.4002      2.00000
    133     -14.4002      2.00000
    134     -14.3962      2.00000
    135     -14.3319      2.00000
    136     -14.3319      2.00000
    137     -14.3318      2.00000
    138     -14.3318      2.00000
    139     -14.3310      2.00000
    140     -14.3229      2.00000
    141     -14.3229      2.00000
    142     -14.3081      2.00000
    143     -14.3081      2.00000
    144     -14.2709      2.00000
    145     -14.2415      2.00000
    146     -14.2334      2.00000
    147     -14.2258      2.00000
    148     -14.2258      2.00000
    149     -14.2194      2.00000
    150     -14.2073      2.00000
    151     -14.2073      2.00000
    152     -14.1966      2.00000
    153     -14.1873      2.00000
    154     -14.1873      2.00000
    155     -14.1411      2.00000
    156     -14.1284      2.00000
    157     -14.1284      2.00000
    158     -14.1258      2.00000
    159     -14.1258      2.00000
    160     -14.0934      2.00000
    161     -14.0934      2.00000
    162     -14.0911      2.00000
    163     -14.0778      2.00000
    164     -14.0727      2.00000
    165     -14.0727      2.00000
    166     -14.0214      2.00000
    167     -14.0214      2.00000
    168     -14.0146      2.00000
    169     -14.0146      2.00000
    170     -13.9866      2.00000
    171     -13.9866      2.00000
    172     -13.9841      2.00000
    173     -13.9841      2.00000
    174     -13.9725      2.00000
    175     -13.9705      2.00000
    176     -13.9508      2.00000
    177     -13.9428      2.00000
    178     -13.9428      2.00000
    179     -13.9179      2.00000
    180     -13.8815      2.00000
    181      -2.5708      2.00000
    182      -2.5708      2.00000
    183      -2.5502      2.00000
    184      -2.5466      2.00000
    185      -2.5466      2.00000
    186      -2.5223      2.00000
    187      -2.5222      2.00000
    188      -2.5065      2.00000
    189      -2.4951      2.00000
    190      -2.4850      2.00000
    191      -2.4717      2.00000
    192      -2.4717      2.00000
    193      -2.4612      2.00000
    194      -2.4422      2.00000
    195      -2.4422      2.00000
    196      -2.3908      2.00000
    197      -2.3908      2.00000
    198      -2.3829      2.00000
    199      -2.3713      2.00000
    200      -2.3713      2.00000
    201      -2.3539      2.00000
    202      -2.2960      2.00000
    203      -2.2960      2.00000
    204      -2.2482      2.00000
    205      -2.0650      2.00000
    206      -2.0062      2.00000
    207      -2.0062      2.00000
    208      -1.9691      2.00000
    209      -1.9691      2.00000
    210      -1.8956      2.00000
    211      -1.8886      2.00000
    212      -1.8850      2.00000
    213      -1.8810      2.00000
    214      -1.8318      2.00000
    215      -1.8318      2.00000
    216      -1.8156      2.00000
    217      -1.8109      2.00000
    218      -1.8085      2.00000
    219      -1.8085      2.00000
    220      -1.8049      2.00000
    221      -1.7988      2.00000
    222      -1.7988      2.00000
    223      -1.7895      2.00000
    224      -1.7895      2.00000
    225      -1.7718      2.00000
    226      -1.7718      2.00000
    227      -1.7600      2.00000
    228      -1.7464      2.00000
    229      -1.7464      2.00000
    230      -1.7162      2.00000
    231      -1.7162      2.00000
    232      -1.6919      2.00000
    233      -1.6601      2.00000
    234      -1.6601      2.00000
    235      -1.6323      2.00000
    236      -1.6323      2.00000
    237      -1.6004      2.00000
    238      -1.5820      2.00000
    239      -1.5820      2.00000
    240      -1.5663      2.00000
[...]
      5.688422  7.584563  7.203431     0.126395    0.019765    0.000000
      9.480703  0.000000  7.203431     0.126395    0.019765    0.000000
      9.480703  3.792281  7.203431     0.126395    0.019765    0.000000
      9.480703  7.584563  7.203431     0.126395    0.019765    0.000000
      0.000000  0.000000  0.000000     0.126395    0.019765    0.000000
      0.000000  3.792281  0.000000     0.126395    0.019765    0.000000
      0.000000  7.584563  0.000000     0.126395    0.019765    0.000000
      3.792281  0.000000  0.000000     0.126395    0.019765    0.000000
      3.792281  3.792281  0.000000     0.126395    0.019765    0.000000
      3.792281  7.584563  0.000000     0.126395    0.019765    0.000000
      7.584563  0.000000  0.000000     0.126395    0.019765    0.000000
      7.584563  3.792281  0.000000     0.126395    0.019765    0.000000
      7.584563  7.584563  0.000000     0.126395    0.019765    0.000000
      0.000000  1.896141  2.401144     0.126395    0.019765    0.000000
      0.000000  5.688422  2.401144     0.126395    0.019765    0.000000
      0.000000  9.480703  2.401144     0.126395    0.019765    0.000000
      3.792281  1.896141  2.401144     0.126395    0.019765    0.000000
      3.792281  5.688422  2.401144     0.126395    0.019765    0.000000
      3.792281  9.480703  2.401144     0.126395    0.019765    0.000000
      7.584563  1.896141  2.401144     0.126395    0.019765    0.000000
      7.584563  5.688422  2.401144     0.126395    0.019765    0.000000
      7.584563  9.480703  2.401144     0.126395    0.019765    0.000000
      0.000000  1.896141  4.397921     0.075151    0.011588    0.000000
      0.000000  5.688422  4.397921     0.075151    0.011588    0.000000
      0.000000  9.480703  4.397921     0.075151    0.011588    0.000000
      3.792281  1.896141  4.397921     0.075151    0.011588    0.000000
      3.792281  5.688422  4.397921     0.075151    0.011588    0.000000
      3.792281  9.480703  4.397921     0.075151    0.011588    0.000000
      7.584563  1.896141  4.397921     0.075151    0.011588    0.000000
      7.584563  5.688422  4.397921     0.075151    0.011588    0.000000
      7.584563  9.480703  4.397921     0.075151    0.011588    0.000000
      1.896141  1.896141  6.799065     0.074105    0.011752    0.000000
      1.896141  5.688422  6.799065     0.074105    0.011752    0.000000
      1.896141  9.480703  6.799065     0.074105    0.011752    0.000000
      5.688422  1.896141  6.799065     0.074105    0.011752    0.000000
      5.688422  5.688422  6.799065     0.074105    0.011752    0.000000
      5.688422  9.480703  6.799065     0.074105    0.011752    0.000000
      9.480703  1.896141  6.799065     0.074105    0.011752    0.000000
      9.480703  5.688422  6.799065     0.074105    0.011752    0.000000
      9.480703  9.480703  6.799065     0.074105    0.011752    0.000000
      1.896141  0.000000  5.206653     0.074105    0.011752    0.000000
      1.896141  3.792281  5.206653     0.074105    0.011752    0.000000
      1.896141  7.584563  5.206653     0.074105    0.011752    0.000000
      5.688422  0.000000  5.206653     0.074105    0.011752    0.000000
      5.688422  3.792281  5.206653     0.074105    0.011752    0.000000
      5.688422  7.584563  5.206653     0.074105    0.011752    0.000000
      9.480703  0.000000  5.206653     0.074105    0.011752    0.000000
      9.480703  3.792281  5.206653     0.074105    0.011752    0.000000
      9.480703  7.584563  5.206653     0.074105    0.011752    0.000000
      0.000000  0.000000  7.607797     0.075151    0.011588    0.000000
      0.000000  3.792281  7.607797     0.075151    0.011588    0.000000
      0.000000  7.584563  7.607797     0.075151    0.011588    0.000000
      3.792281  0.000000  7.607797     0.075151    0.011588    0.000000
      3.792281  3.792281  7.607797     0.075151    0.011588    0.000000
      3.792281  7.584563  7.607797     0.075151    0.011588    0.000000
      7.584563  0.000000  7.607797     0.075151    0.011588    0.000000
      7.584563  3.792281  7.607797     0.075151    0.011588    0.000000
      7.584563  7.584563  7.607797     0.075151    0.011588    0.000000
      1.896141  0.000000  9.200209     0.075151    0.011588    0.000000
      1.896141  3.792281  9.200209     0.075151    0.011588    0.000000
      1.896141  7.584563  9.200209     0.075151    0.011588    0.000000
      5.688422  0.000000  9.200209     0.075151    0.011588    0.000000
      5.688422  3.792281  9.200209     0.075151    0.011588    0.000000
      5.688422  7.584563  9.200209     0.075151    0.011588    0.000000
      9.480703  0.000000  9.200209     0.075151    0.011588    0.000000
      9.480703  3.792281  9.200209     0.075151    0.011588    0.000000
      9.480703  7.584563  9.200209     0.075151    0.011588    0.000000
      0.000000  0.000000  1.996778     0.074105    0.011752    0.000000
      0.000000  3.792281  1.996778     0.074105    0.011752    0.000000
      0.000000  7.584563  1.996778     0.074105    0.011752    0.000000
      3.792281  0.000000  1.996778     0.074105    0.011752    0.000000
      3.792281  3.792281  1.996778     0.074105    0.011752    0.000000
      3.792281  7.584563  1.996778     0.074105    0.011752    0.000000
      7.584563  0.000000  1.996778     0.074105    0.011752    0.000000
      7.584563  3.792281  1.996778     0.074105    0.011752    0.000000
      7.584563  7.584563  1.996778     0.074105    0.011752    0.000000
      0.000000  1.896141  0.404366     0.074105    0.011752    0.000000
      0.000000  5.688422  0.404366     0.074105    0.011752    0.000000
      0.000000  9.480703  0.404366     0.074105    0.011752    0.000000
      3.792281  1.896141  0.404366     0.074105    0.011752    0.000000
      3.792281  5.688422  0.404366     0.074105    0.011752    0.000000
      3.792281  9.480703  0.404366     0.074105    0.011752    0.000000
      7.584563  1.896141  0.404366     0.074105    0.011752    0.000000
      7.584563  5.688422  0.404366     0.074105    0.011752    0.000000
      7.584563  9.480703  0.404366     0.074105    0.011752    0.000000
      1.896141  1.896141  2.805510     0.075151    0.011588    0.000000
      1.896141  5.688422  2.805510     0.075151    0.011588    0.000000
      1.896141  9.480703  2.805510     0.075151    0.011588    0.000000
      5.688422  1.896141  2.805510     0.075151    0.011588    0.000000
      5.688422  5.688422  2.805510     0.075151    0.011588    0.000000
      5.688422  9.480703  2.805510     0.075151    0.011588    0.000000
      9.480703  1.896141  2.805510     0.075151    0.011588    0.000000
      9.480703  5.688422  2.805510     0.075151    0.011588    0.000000
      9.480703  9.480703  2.805510     0.075151    0.011588    0.000000

 324 f/i=    0.103571 THz     0.650758 2PiTHz    3.454770 cm-1     0.428337 meV
             X         Y         Z           dx          dy          dz
      1.896141  1.896141  4.802287    -0.019765    0.126395    0.000000
      1.896141  5.688422  4.802287    -0.019765    0.126395    0.000000
      1.896141  9.480703  4.802287    -0.019765    0.126395    0.000000
      5.688422  1.896141  4.802287    -0.019765    0.126395    0.000000
      5.688422  5.688422  4.802287    -0.019765    0.126395    0.000000
      5.688422  9.480703  4.802287    -0.019765    0.126395    0.000000
      9.480703  1.896141  4.802287    -0.019765    0.126395    0.000000
      9.480703  5.688422  4.802287    -0.019765    0.126395    0.000000
      9.480703  9.480703  4.802287    -0.019765    0.126395    0.000000
      1.896141  0.000000  7.203431    -0.019765    0.126395    0.000000
      1.896141  3.792281  7.203431    -0.019765    0.126395    0.000000
      1.896141  7.584563  7.203431    -0.019765    0.126395    0.000000
      5.688422  0.000000  7.203431    -0.019765    0.126395    0.000000
      5.688422  3.792281  7.203431    -0.019765    0.126395    0.000000
      5.688422  7.584563  7.203431    -0.019765    0.126395    0.000000
      9.480703  0.000000  7.203431    -0.019765    0.126395    0.000000
      9.480703  3.792281  7.203431    -0.019765    0.126395    0.000000
      9.480703  7.584563  7.203431    -0.019765    0.126395    0.000000
      0.000000  0.000000  0.000000    -0.019765    0.126395    0.000000
      0.000000  3.792281  0.000000    -0.019765    0.126395    0.000000
      0.000000  7.584563  0.000000    -0.019765    0.126395    0.000000
      3.792281  0.000000  0.000000    -0.019765    0.126395    0.000000
      3.792281  3.792281  0.000000    -0.019765    0.126395    0.000000
      3.792281  7.584563  0.000000    -0.019765    0.126395    0.000000
      7.584563  0.000000  0.000000    -0.019765    0.126395    0.000000
      7.584563  3.792281  0.000000    -0.019765    0.126395    0.000000
      7.584563  7.584563  0.000000    -0.019765    0.126395    0.000000
      0.000000  1.896141  2.401144    -0.019765    0.126395    0.000000
      0.000000  5.688422  2.401144    -0.019765    0.126395    0.000000
      0.000000  9.480703  2.401144    -0.019765    0.126395    0.000000
      3.792281  1.896141  2.401144    -0.019765    0.126395    0.000000
      3.792281  5.688422  2.401144    -0.019765    0.126395    0.000000
      3.792281  9.480703  2.401144    -0.019765    0.126395    0.000000
      7.584563  1.896141  2.401144    -0.019765    0.126395    0.000000
      7.584563  5.688422  2.401144    -0.019765    0.126395    0.000000
      7.584563  9.480703  2.401144    -0.019765    0.126395    0.000000
      0.000000  1.896141  4.397921    -0.011752    0.074105    0.000000
      0.000000  5.688422  4.397921    -0.011752    0.074105    0.000000
      0.000000  9.480703  4.397921    -0.011752    0.074105    0.000000
      3.792281  1.896141  4.397921    -0.011752    0.074105    0.000000
      3.792281  5.688422  4.397921    -0.011752    0.074105    0.000000
      3.792281  9.480703  4.397921    -0.011752    0.074105    0.000000
      7.584563  1.896141  4.397921    -0.011752    0.074105    0.000000
      7.584563  5.688422  4.397921    -0.011752    0.074105    0.000000
      7.584563  9.480703  4.397921    -0.011752    0.074105    0.000000
      1.896141  1.896141  6.799065    -0.011588    0.075151    0.000000
      1.896141  5.688422  6.799065    -0.011588    0.075151    0.000000
      1.896141  9.480703  6.799065    -0.011588    0.075151    0.000000
      5.688422  1.896141  6.799065    -0.011588    0.075151    0.000000
      5.688422  5.688422  6.799065    -0.011588    0.075151    0.000000
      5.688422  9.480703  6.799065    -0.011588    0.075151    0.000000
      9.480703  1.896141  6.799065    -0.011588    0.075151    0.000000
      9.480703  5.688422  6.799065    -0.011588    0.075151    0.000000
      9.480703  9.480703  6.799065    -0.011588    0.075151    0.000000
      1.896141  0.000000  5.206653    -0.011588    0.075151    0.000000
      1.896141  3.792281  5.206653    -0.011588    0.075151    0.000000
      1.896141  7.584563  5.206653    -0.011588    0.075151    0.000000
      5.688422  0.000000  5.206653    -0.011588    0.075151    0.000000
      5.688422  3.792281  5.206653    -0.011588    0.075151    0.000000
      5.688422  7.584563  5.206653    -0.011588    0.075151    0.000000
      9.480703  0.000000  5.206653    -0.011588    0.075151    0.000000
      9.480703  3.792281  5.206653    -0.011588    0.075151    0.000000
      9.480703  7.584563  5.206653    -0.011588    0.075151    0.000000
      0.000000  0.000000  7.607797    -0.011752    0.074105    0.000000
      0.000000  3.792281  7.607797    -0.011752    0.074105    0.000000
      0.000000  7.584563  7.607797    -0.011752    0.074105    0.000000
      3.792281  0.000000  7.607797    -0.011752    0.074105    0.000000
      3.792281  3.792281  7.607797    -0.011752    0.074105    0.000000
      3.792281  7.584563  7.607797    -0.011752    0.074105    0.000000
      7.584563  0.000000  7.607797    -0.011752    0.074105    0.000000
      7.584563  3.792281  7.607797    -0.011752    0.074105    0.000000
      7.584563  7.584563  7.607797    -0.011752    0.074105    0.000000
      1.896141  0.000000  9.200209    -0.011752    0.074105    0.000000
      1.896141  3.792281  9.200209    -0.011752    0.074105    0.000000
      1.896141  7.584563  9.200209    -0.011752    0.074105    0.000000
      5.688422  0.000000  9.200209    -0.011752    0.074105    0.000000
      5.688422  3.792281  9.200209    -0.011752    0.074105    0.000000
      5.688422  7.584563  9.200209    -0.011752    0.074105    0.000000
      9.480703  0.000000  9.200209    -0.011752    0.074105    0.000000
      9.480703  3.792281  9.200209    -0.011752    0.074105    0.000000
      9.480703  7.584563  9.200209    -0.011752    0.074105    0.000000
      0.000000  0.000000  1.996778    -0.011588    0.075151    0.000000
      0.000000  3.792281  1.996778    -0.011588    0.075151    0.000000
      0.000000  7.584563  1.996778    -0.011588    0.075151    0.000000
      3.792281  0.000000  1.996778    -0.011588    0.075151    0.000000
      3.792281  3.792281  1.996778    -0.011588    0.075151    0.000000
      3.792281  7.584563  1.996778    -0.011588    0.075151    0.000000
      7.584563  0.000000  1.996778    -0.011588    0.075151    0.000000
      7.584563  3.792281  1.996778    -0.011588    0.075151    0.000000
      7.584563  7.584563  1.996778    -0.011588    0.075151    0.000000
      0.000000  1.896141  0.404366    -0.011588    0.075151    0.000000
      0.000000  5.688422  0.404366    -0.011588    0.075151    0.000000
      0.000000  9.480703  0.404366    -0.011588    0.075151    0.000000
      3.792281  1.896141  0.404366    -0.011588    0.075151    0.000000
      3.792281  5.688422  0.404366    -0.011588    0.075151    0.000000
      3.792281  9.480703  0.404366    -0.011588    0.075151    0.000000
      7.584563  1.896141  0.404366    -0.011588    0.075151    0.000000
      7.584563  5.688422  0.404366    -0.011588    0.075151    0.000000
      7.584563  9.480703  0.404366    -0.011588    0.075151    0.000000
      1.896141  1.896141  2.805510    -0.011752    0.074105    0.000000
      1.896141  5.688422  2.805510    -0.011752    0.074105    0.000000
      1.896141  9.480703  2.805510    -0.011752    0.074105    0.000000
      5.688422  1.896141  2.805510    -0.011752    0.074105    0.000000
      5.688422  5.688422  2.805510    -0.011752    0.074105    0.000000
      5.688422  9.480703  2.805510    -0.011752    0.074105    0.000000
      9.480703  1.896141  2.805510    -0.011752    0.074105    0.000000
      9.480703  5.688422  2.805510    -0.011752    0.074105    0.000000
      9.480703  9.480703  2.805510    -0.011752    0.074105    0.000000


 ELASTIC MODULI CONTR FROM IONIC RELAXATION (kBar)
 Direction    XX          YY          ZZ          XY          YZ          ZX
 --------------------------------------------------------------------------------
 XX       -1166.3061   1165.6815    -26.8971      0.0000     -0.0000     -0.0000
 YY        1165.6815  -1166.3061    -26.8971      0.0000      0.0000      0.0000
 ZZ         -26.8971    -26.8971  -2316.8105      0.0000      0.0000     -0.0000
 XY           0.0000      0.0000      0.0000      0.0000      0.0000      0.0000
 YZ          -0.0000      0.0000      0.0000      0.0000   -494.9899     -0.0000
 ZX          -0.0000      0.0000     -0.0000      0.0000     -0.0000   -494.9899
 --------------------------------------------------------------------------------



--------------------------------------------------------------------------------------------------------


  LATTYP: Found a simple tetragonal cell.
 ALAT       =    11.3768434223
 C/A-ratio  =     0.8442213906

  Lattice vectors:

 A1 = (  11.3768434223,   0.0000000000,   0.0000000000)
 A2 = (   0.0000000000,  11.3768434223,   0.0000000000)
 A3 = (   0.0000000000,   0.0000000000,   9.6045745743)


Analysis of symmetry for initial positions (statically):
=====================================================================
 Subroutine PRICEL returns following result:

  LATTYP: Found a body centered tetragonal cell.
 ALAT       =     3.7922812508
 C/A-ratio  =     2.5326640983

  Lattice vectors:

 A1 = (  -1.8961406311,   1.8961406197,   4.8022872871)
 A2 = (   1.8961406311,  -1.8961406197,   4.8022872871)
 A3 = (   1.8961406311,   1.8961406311,  -4.8022872871)

  18 primitive cells build up your supercell.


 Routine SETGRP: Setting up the symmetry group for a
 simple tetragonal supercell.


 Subroutine GETGRP returns: Found 16 space group operations
 (whereof  8 operations were pure point group operations)
 out of a pool of 16 trial point group operations.


The static configuration has the point symmetry D_2d.
 The point group associated with its full space group is D_4h.


Analysis of symmetry for dynamics (positions and initial velocities):
=====================================================================
 Subroutine PRICEL returns following result:

  LATTYP: Found a body centered tetragonal cell.
 ALAT       =     3.7922812508
 C/A-ratio  =     2.5326640983

  Lattice vectors:

 A1 = (  -1.8961406311,   1.8961406197,   4.8022872871)
 A2 = (   1.8961406311,  -1.8961406197,   4.8022872871)
 A3 = (   1.8961406311,   1.8961406311,  -4.8022872871)

  18 primitive cells build up your supercell.


 Routine SETGRP: Setting up the symmetry group for a
 simple tetragonal supercell.


 Subroutine GETGRP returns: Found 16 space group operations
 (whereof  8 operations were pure point group operations)
 out of a pool of 16 trial point group operations.


The dynamic configuration has the point symmetry D_2d.
 The point group associated with its full space group is D_4h.


 Subroutine INISYM returns: Found 16 space group operations
 (whereof  8 operations are pure point group operations),
 and found    18 'primitive' translations


 KPOINTS: K-Points

Automatic generation of k-mesh.
 Grid dimensions read from file:
 generate k-points for:    2    2    2

 Generating k-lattice:

  Cartesian coordinates                     Fractional coordinates (reciprocal lattice)
     0.043948922  0.000000000  0.000000000     0.500000000  0.000000000  0.000000000
     0.000000000  0.043948922  0.000000000     0.000000000  0.500000000  0.000000000
     0.000000000  0.000000000  0.052058527     0.000000000  0.000000000  0.500000000

  Length of vectors
     0.043948922  0.043948922  0.052058527

  Shift w.r.t. Gamma in fractional coordinates (k-lattice)
     0.500000000  0.500000000  0.500000000


 Subroutine IBZKPT returns following result:
 ===========================================

 Found      1 irreducible k-points:

 Following reciprocal coordinates:
            Coordinates               Weight
  0.250000  0.250000  0.250000      8.000000

 Following cartesian coordinates:
            Coordinates               Weight
  0.021974  0.021974  0.026029      8.000000

     LOOP+:  cpu time     63.9988: real time     64.7292
    4ORBIT:  cpu time      0.0000: real time      0.0000

 total amount of memory used by VASP MPI-rank0    94497. kBytes
=======================================================================

   base      :      30000. kBytes
   nonlr-proj:      19556. kBytes
   fftplans  :       5773. kBytes
   grid      :      14626. kBytes
   one-center:       1679. kBytes
   wavefun   :      22863. kBytes



 General timing and accounting informations for this job:
 ========================================================

                  Total CPU time used (sec):      794.297
                            User time (sec):      775.147
                          System time (sec):       19.150
                         Elapsed time (sec):      809.362

                   Maximum memory used (kb):      442336.
                   Average memory used (kb):          N/A

                          Minor page faults:       260323
                          Major page faults:           12
                 Voluntary context switches:        41304
