 vasp.6.3.0 20Jan22 (build Mar 29 2022 16:24:06) complex

 executed on             Bridges2 date 2024.08.03  14:55:31
 running on   32 total cores
 distrk:  each k-point on    4 cores,    8 groups
 distr:  one band on NCORE=   1 cores,    4 groups


--------------------------------------------------------------------------------------------------------


 INCAR:
   ICHARG = 2
   LWAVE = .FALSE.
   LCHARG = .FALSE.
   LVTOT = .FALSE.
   NCORE = 1
   KPAR = 8
   EDIFF = 1E-7
   NELM = 80
   PREC = Normal
   LREAL = Auto
   NELMIN = 4
   ENCUT = 400.0 eV
   ISPIN = 1
   ISMEAR = 0
   SIGMA = 0.10
   NSW = 0
   LEPSILON = .TRUE.
   LPEAD = .TRUE.
   ISYM = 0

 POTCAR:    PAW_PBE Ti_pv 07Sep2000
 POTCAR:    PAW_PBE O 08Apr2002
 -----------------------------------------------------------------------------
|                                                                             |
|           W    W    AA    RRRRR   N    N  II  N    N   GGGG   !!!           |
|           W    W   A  A   R    R  NN   N  II  NN   N  G    G  !!!           |
|           W    W  A    A  R    R  N N  N  II  N N  N  G       !!!           |
|           W WW W  AAAAAA  RRRRR   N  N N  II  N  N N  G  GGG   !            |
|           WW  WW  A    A  R   R   N   NN  II  N   NN  G    G                |
|           W    W  A    A  R    R  N    N  II  N    N   GGGG   !!!           |
|                                                                             |
|     For optimal performance we recommend to set                             |
|       NCORE = 2 up to number-of-cores-per-socket                            |
|     NCORE specifies how many cores store one orbital (NPAR=cpu/NCORE).      |
|     This setting can greatly improve the performance of VASP for DFT.       |
|     The default, NCORE=1 might be grossly inefficient on modern             |
|     multi-core architectures or massively parallel machines. Do your        |
|     own testing! More info at https://www.vasp.at/wiki/index.php/NCORE      |
|     Unfortunately you need to use the default for GW and RPA                |
|     calculations (for HF NCORE is supported but not extensively tested      |
|     yet).                                                                   |
|                                                                             |
 -----------------------------------------------------------------------------

 POTCAR:    PAW_PBE Ti_pv 07Sep2000
   VRHFIN =Ti: d3 s1
   LEXCH  = PE
   EATOM  =  1042.5995 eV,   76.6289 Ry

   TITEL  = PAW_PBE Ti_pv 07Sep2000
   LULTRA =        F    use ultrasoft PP ?
   IUNSCR =        1    unscreen: 0-lin 1-nonlin 2-no
   RPACOR =    2.200    partial core radius
   POMASS =   47.880; ZVAL   =   10.000    mass and valenz
   RCORE  =    2.500    outmost cutoff radius
   RWIGS  =    2.500; RWIGS  =    1.323    wigner-seitz radius (au A)
   ENMAX  =  222.335; ENMIN  =  166.751 eV
   RCLOC  =    1.701    cutoff for local pot
   LCOR   =        T    correct aug charges
   LPAW   =        T    paw PP
   EAUG   =  482.848
   DEXC   =    0.000
   RMAX   =    2.564    core radius for proj-oper
   RAUG   =    1.300    factor for augmentation sphere
   RDEP   =    2.538    radius for radial grids
   RDEPT  =    1.952    core radius for aug-charge

   Atomic configuration
    8 entries
     n  l   j            E        occ.
     1  0  0.50     -4865.3608   2.0000
     2  0  0.50      -533.1368   2.0000
     2  1  1.50      -440.5031   6.0000
     3  0  0.50       -59.3186   2.0000
     3  1  1.50       -35.7012   6.0000
     3  2  2.50        -1.9157   3.0000
     4  0  0.50        -3.7291   1.0000
     4  3  2.50        -1.3606   0.0000
   Description
     l       E           TYP  RCUT    TYP  RCUT
     1    -35.7012140     23  2.300
     1     -1.3605826     23  2.300
     2     -1.9156996     23  2.500
     2     -0.4063033     23  2.500
     0     -3.7290856     23  2.500
     0     20.4087390     23  2.500
  local pseudopotential read in
  partial core-charges read in
  partial kinetic energy density read in
  atomic valenz-charges read in
  non local Contribution for L=           1  read in
    real space projection operators read in
  non local Contribution for L=           1  read in
    real space projection operators read in
  non local Contribution for L=           2  read in
    real space projection operators read in
  non local Contribution for L=           2  read in
    real space projection operators read in
  non local Contribution for L=           0  read in
    real space projection operators read in
  non local Contribution for L=           0  read in
    real space projection operators read in
    PAW grid and wavefunctions read in

   number of l-projection  operators is LMAX  =           6
   number of lm-projection operators is LMMAX =          18

 POTCAR:    PAW_PBE O 08Apr2002
   VRHFIN =O: s2p4
   LEXCH  = PE
   EATOM  =   432.3788 eV,   31.7789 Ry

   TITEL  = PAW_PBE O 08Apr2002
   LULTRA =        F    use ultrasoft PP ?
   IUNSCR =        1    unscreen: 0-lin 1-nonlin 2-no
   RPACOR =    1.200    partial core radius
   POMASS =   16.000; ZVAL   =    6.000    mass and valenz
   RCORE  =    1.520    outmost cutoff radius
   RWIGS  =    1.550; RWIGS  =    0.820    wigner-seitz radius (au A)
   ENMAX  =  400.000; ENMIN  =  300.000 eV
   ICORE  =        2    local potential
   LCOR   =        T    correct aug charges
   LPAW   =        T    paw PP
   EAUG   =  605.392
   DEXC   =    0.000
   RMAX   =    1.553    core radius for proj-oper
   RAUG   =    1.300    factor for augmentation sphere
   RDEP   =    1.550    radius for radial grids
   RDEPT  =    1.329    core radius for aug-charge

   Atomic configuration
    4 entries
     n  l   j            E        occ.
     1  0  0.50      -514.6923   2.0000
     2  0  0.50       -23.9615   2.0000
     2  1  0.50        -9.0305   4.0000
     3  2  1.50        -9.5241   0.0000
   Description
     l       E           TYP  RCUT    TYP  RCUT
     0    -23.9615318     23  1.200
     0     -9.5240782     23  1.200
     1     -9.0304911     23  1.520
     1      8.1634956     23  1.520
     2     -9.5240782      7  1.500
  local pseudopotential read in
  partial core-charges read in
  partial kinetic energy density read in
  kinetic energy density of atom read in
  atomic valenz-charges read in
  non local Contribution for L=           0  read in
    real space projection operators read in
  non local Contribution for L=           0  read in
    real space projection operators read in
  non local Contribution for L=           1  read in
    real space projection operators read in
  non local Contribution for L=           1  read in
    real space projection operators read in
    PAW grid and wavefunctions read in

   number of l-projection  operators is LMAX  =           4
   number of lm-projection operators is LMMAX =           8

 Optimization of the real space projectors (new method)

 maximal supplied QI-value         = 15.12
 optimisation between [QCUT,QGAM] = [ 10.13, 20.41] = [ 28.73,116.64] Ry
 Optimized for a Real-space Cutoff    1.51 Angstroem

   l    n(q)    QCUT    max X(q) W(low)/X(q) W(high)/X(q)  e(spline)
   1      9    10.129     4.216    0.12E-04    0.72E-04    0.60E-07
   1      9    10.129     5.422    0.84E-04    0.21E-03    0.15E-06
   2      8    10.129    72.084    0.33E-03    0.35E-04    0.17E-06
   2      8    10.129    65.965    0.33E-03    0.37E-04    0.17E-06
   0      9    10.129    41.531    0.17E-03    0.19E-03    0.81E-07
   0      9    10.129    16.290    0.12E-03    0.14E-03    0.64E-07
 Optimization of the real space projectors (new method)

 maximal supplied QI-value         = 24.76
 optimisation between [QCUT,QGAM] = [ 10.15, 20.30] = [ 28.85,115.39] Ry
 Optimized for a Real-space Cutoff    1.38 Angstroem

   l    n(q)    QCUT    max X(q) W(low)/X(q) W(high)/X(q)  e(spline)
   0      8    10.150    20.381    0.22E-03    0.32E-03    0.29E-06
   0      8    10.150    15.268    0.23E-03    0.35E-03    0.30E-06
   1      8    10.150     5.964    0.46E-03    0.53E-03    0.21E-06
   1      8    10.150     5.382    0.38E-03    0.45E-03    0.19E-06
  PAW_PBE Ti_pv 07Sep2000               :
 energy of atom  1       EATOM=-1042.5995
 kinetic energy error for atom=    0.0037 (will be added to EATOM!!)
  PAW_PBE O 08Apr2002                   :
 energy of atom  2       EATOM= -432.3788
 kinetic energy error for atom=    0.1156 (will be added to EATOM!!)


 POSCAR: Ti4 O8
  positions in cartesian coordinates
  No initial velocities read in
 exchange correlation table for  LEXCH =        8
   RHO(1)=    0.500       N(1)  =     2000
   RHO(2)=  100.500       N(2)  =     4000



--------------------------------------------------------------------------------------------------------


 ion  position               nearest neighbor table
   1  0.167  0.167  0.500-  56 1.94  55 1.94  40 1.94  37 1.94 100 2.00  46 2.00  31 3.06  28 3.06
                            11 3.06  10 3.06
   2  0.167  0.500  0.500-  56 1.94  41 1.94  38 1.94  57 1.94 101 2.00  47 2.00  11 3.06  32 3.06
                            29 3.06  12 3.06
   3  0.167  0.833  0.500-  57 1.94  42 1.94  39 1.94  55 1.94 102 2.00  48 2.00  12 3.06  33 3.06
                            30 3.06  10 3.06
   4  0.500  0.167  0.500-  40 1.94  59 1.94  58 1.94  43 1.94 103 2.00  49 2.00  31 3.06  14 3.06
                            13 3.06  34 3.06
   5  0.500  0.500  0.500-  59 1.94  41 1.94  60 1.94  44 1.94 104 2.00  50 2.00  32 3.06  14 3.06
                            35 3.06  15 3.06
   6  0.500  0.833  0.500-  60 1.94  42 1.94  58 1.94  45 1.94 105 2.00  51 2.00  15 3.06  33 3.06
                            13 3.06  36 3.06
   7  0.833  0.167  0.500-  43 1.94  62 1.94  61 1.94  37 1.94 106 2.00  52 2.00  34 3.06  17 3.06
                            16 3.06  28 3.06
   8  0.833  0.500  0.500-  44 1.94  62 1.94  63 1.94  38 1.94 107 2.00  53 2.00  35 3.06  17 3.06
                            29 3.06  18 3.06
   9  0.833  0.833  0.500-  63 1.94  45 1.94  61 1.94  39 1.94 108 2.00  54 2.00  36 3.06  18 3.06
                            30 3.06  16 3.06
  10  0.167  0.000  0.750-  67 1.94  64 1.94  46 1.94  48 1.94  73 2.00  55 2.00  22 3.06  19 3.06
                             1 3.06   3 3.06
  11  0.167  0.333  0.750-  47 1.94  46 1.94  68 1.94  65 1.94  74 2.00  56 2.00   2 3.06  23 3.06
                            20 3.06   1 3.06
  12  0.167  0.667  0.750-  48 1.94  69 1.94  66 1.94  47 1.94  75 2.00  57 2.00   3 3.06  24 3.06
                            21 3.06   2 3.06
  13  0.500  0.000  0.750-  67 1.94  49 1.94  51 1.94  70 1.94  76 2.00  58 2.00  22 3.06   4 3.06
                            25 3.06   6 3.06
  14  0.500  0.333  0.750-  50 1.94  68 1.94  49 1.94  71 1.94  77 2.00  59 2.00  23 3.06   5 3.06
                             4 3.06  26 3.06
  15  0.500  0.667  0.750-  51 1.94  69 1.94  50 1.94  72 1.94  78 2.00  60 2.00   6 3.06  24 3.06
                            27 3.06   5 3.06
  16  0.833  0.000  0.750-  70 1.94  52 1.94  64 1.94  54 1.94  79 2.00  61 2.00  25 3.06   7 3.06
                            19 3.06   9 3.06
  17  0.833  0.333  0.750-  71 1.94  53 1.94  52 1.94  65 1.94  80 2.00  62 2.00  26 3.06   8 3.06
                             7 3.06  20 3.06
  18  0.833  0.667  0.750-  54 1.94  72 1.94  66 1.94  53 1.94  81 2.00  63 2.00  27 3.06   9 3.06
                            21 3.06   8 3.06
  19  0.000  0.000  0.000-  73 1.94  91 1.94  79 1.94  93 1.94  82 2.00  64 2.00  10 3.06  28 3.06
                            16 3.06  30 3.06
  20  0.000  0.333  0.000-  92 1.94  74 1.94  91 1.94  80 1.94  83 2.00  65 2.00  29 3.06  11 3.06
                            28 3.06  17 3.06
  21  0.000  0.667  0.000-  93 1.94  75 1.94  81 1.94  92 1.94  84 2.00  66 2.00  30 3.06  12 3.06
                            18 3.06  29 3.06
  22  0.333  0.000  0.000-  76 1.94  73 1.94  94 1.94  96 1.94  85 2.00  67 2.00  13 3.06  10 3.06
                            31 3.06  33 3.06
  23  0.333  0.333  0.000-  77 1.94  95 1.94  74 1.94  94 1.94  86 2.00  68 2.00  14 3.06  32 3.06
                            11 3.06  31 3.06
  24  0.333  0.667  0.000-  96 1.94  78 1.94  75 1.94  95 1.94  87 2.00  69 2.00  33 3.06  15 3.06
                            12 3.06  32 3.06
  25  0.667  0.000  0.000-  79 1.94  97 1.94  76 1.94  99 1.94  88 2.00  70 2.00  16 3.06  34 3.06
                            13 3.06  36 3.06
  26  0.667  0.333  0.000-  80 1.94  98 1.94  97 1.94  77 1.94  89 2.00  71 2.00  17 3.06  35 3.06
                            34 3.06  14 3.06
  27  0.667  0.667  0.000-  81 1.94  99 1.94  78 1.94  98 1.94  90 2.00  72 2.00  18 3.06  36 3.06
                            15 3.06  35 3.06
  28  0.000  0.167  0.250-  83 1.94  82 1.94 100 1.94 106 1.94  37 2.00  91 2.00   1 3.06  20 3.06
                            19 3.06   7 3.06
  29  0.000  0.500  0.250-  83 1.94 101 1.94  84 1.94 107 1.94  38 2.00  92 2.00  20 3.06   2 3.06
                             8 3.06  21 3.06
  30  0.000  0.833  0.250-  84 1.94 102 1.94  82 1.94 108 1.94  39 2.00  93 2.00  21 3.06   3 3.06
                             9 3.06  19 3.06
  31  0.333  0.167  0.250- 103 1.94  86 1.94  85 1.94 100 1.94  40 2.00  94 2.00   4 3.06   1 3.06
                            23 3.06  22 3.06
  32  0.333  0.500  0.250-  86 1.94 104 1.94 101 1.94  87 1.94  41 2.00  95 2.00   5 3.06  23 3.06
                             2 3.06  24 3.06
  33  0.333  0.833  0.250-  87 1.94 105 1.94 102 1.94  85 1.94  42 2.00  96 2.00  24 3.06   6 3.06
                             3 3.06  22 3.06
  34  0.667  0.167  0.250- 106 1.94  89 1.94  88 1.94 103 1.94  43 2.00  97 2.00   7 3.06  26 3.06
                            25 3.06   4 3.06
  35  0.667  0.500  0.250- 107 1.94  89 1.94  90 1.94 104 1.94  44 2.00  98 2.00   8 3.06  26 3.06
                             5 3.06  27 3.06
  36  0.667  0.833  0.250-  90 1.94 108 1.94  88 1.94 105 1.94  45 2.00  99 2.00   9 3.06  27 3.06
                            25 3.06   6 3.06
  37  0.000  0.167  0.458-   1 1.94   7 1.94  28 2.00
  38  0.000  0.500  0.458-   2 1.94   8 1.94  29 2.00
  39  0.000  0.833  0.458-   3 1.94   9 1.94  30 2.00
  40  0.333  0.167  0.458-   4 1.94   1 1.94  31 2.00
  41  0.333  0.500  0.458-   5 1.94   2 1.94  32 2.00
  42  0.333  0.833  0.458-   6 1.94   3 1.94  33 2.00
  43  0.667  0.167  0.458-   7 1.94   4 1.94  34 2.00
  44  0.667  0.500  0.458-   8 1.94   5 1.94  35 2.00
  45  0.667  0.833  0.458-   9 1.94   6 1.94  36 2.00
  46  0.167  0.167  0.708-  11 1.94  10 1.94   1 2.00
  47  0.167  0.500  0.708-  11 1.94  12 1.94   2 2.00
  48  0.167  0.833  0.708-  12 1.94  10 1.94   3 2.00
  49  0.500  0.167  0.708-  14 1.94  13 1.94   4 2.00
  50  0.500  0.500  0.708-  14 1.94  15 1.94   5 2.00
  51  0.500  0.833  0.708-  15 1.94  13 1.94   6 2.00
  52  0.833  0.167  0.708-  17 1.94  16 1.94   7 2.00
  53  0.833  0.500  0.708-  17 1.94  18 1.94   8 2.00
  54  0.833  0.833  0.708-  18 1.94  16 1.94   9 2.00
  55  0.167  0.000  0.542-   1 1.94   3 1.94  10 2.00
  56  0.167  0.333  0.542-   2 1.94   1 1.94  11 2.00
  57  0.167  0.667  0.542-   3 1.94   2 1.94  12 2.00
  58  0.500  0.000  0.542-   4 1.94   6 1.94  13 2.00
  59  0.500  0.333  0.542-   5 1.94   4 1.94  14 2.00
  60  0.500  0.667  0.542-   6 1.94   5 1.94  15 2.00
  61  0.833  0.000  0.542-   7 1.94   9 1.94  16 2.00
  62  0.833  0.333  0.542-   8 1.94   7 1.94  17 2.00
  63  0.833  0.667  0.542-   9 1.94   8 1.94  18 2.00
  64  0.000  0.000  0.792-  10 1.94  16 1.94  19 2.00
  65  0.000  0.333  0.792-  11 1.94  17 1.94  20 2.00
  66  0.000  0.667  0.792-  12 1.94  18 1.94  21 2.00
  67  0.333  0.000  0.792-  13 1.94  10 1.94  22 2.00
  68  0.333  0.333  0.792-  14 1.94  11 1.94  23 2.00
  69  0.333  0.667  0.792-  15 1.94  12 1.94  24 2.00
  70  0.667  0.000  0.792-  16 1.94  13 1.94  25 2.00
  71  0.667  0.333  0.792-  17 1.94  14 1.94  26 2.00
  72  0.667  0.667  0.792-  18 1.94  15 1.94  27 2.00
  73  0.167  0.000  0.958-  22 1.94  19 1.94  10 2.00
  74  0.167  0.333  0.958-  23 1.94  20 1.94  11 2.00
  75  0.167  0.667  0.958-  24 1.94  21 1.94  12 2.00
  76  0.500  0.000  0.958-  22 1.94  25 1.94  13 2.00
  77  0.500  0.333  0.958-  23 1.94  26 1.94  14 2.00
  78  0.500  0.667  0.958-  24 1.94  27 1.94  15 2.00
  79  0.833  0.000  0.958-  25 1.94  19 1.94  16 2.00
  80  0.833  0.333  0.958-  26 1.94  20 1.94  17 2.00
  81  0.833  0.667  0.958-  27 1.94  21 1.94  18 2.00
  82  0.000  0.000  0.208-  28 1.94  30 1.94  19 2.00
  83  0.000  0.333  0.208-  29 1.94  28 1.94  20 2.00
  84  0.000  0.667  0.208-  30 1.94  29 1.94  21 2.00
  85  0.333  0.000  0.208-  31 1.94  33 1.94  22 2.00
  86  0.333  0.333  0.208-  32 1.94  31 1.94  23 2.00
  87  0.333  0.667  0.208-  33 1.94  32 1.94  24 2.00
  88  0.667  0.000  0.208-  34 1.94  36 1.94  25 2.00
  89  0.667  0.333  0.208-  35 1.94  34 1.94  26 2.00
  90  0.667  0.667  0.208-  36 1.94  35 1.94  27 2.00
  91  0.000  0.167  0.042-  20 1.94  19 1.94  28 2.00
  92  0.000  0.500  0.042-  20 1.94  21 1.94  29 2.00
  93  0.000  0.833  0.042-  21 1.94  19 1.94  30 2.00
  94  0.333  0.167  0.042-  23 1.94  22 1.94  31 2.00
  95  0.333  0.500  0.042-  23 1.94  24 1.94  32 2.00
  96  0.333  0.833  0.042-  24 1.94  22 1.94  33 2.00
  97  0.667  0.167  0.042-  26 1.94  25 1.94  34 2.00
  98  0.667  0.500  0.042-  26 1.94  27 1.94  35 2.00
  99  0.667  0.833  0.042-  27 1.94  25 1.94  36 2.00
 100  0.167  0.167  0.292-  31 1.94  28 1.94   1 2.00
 101  0.167  0.500  0.292-  32 1.94  29 1.94   2 2.00
 102  0.167  0.833  0.292-  33 1.94  30 1.94   3 2.00
 103  0.500  0.167  0.292-  31 1.94  34 1.94   4 2.00
 104  0.500  0.500  0.292-  32 1.94  35 1.94   5 2.00
 105  0.500  0.833  0.292-  33 1.94  36 1.94   6 2.00
 106  0.833  0.167  0.292-  34 1.94  28 1.94   7 2.00
 107  0.833  0.500  0.292-  35 1.94  29 1.94   8 2.00
 108  0.833  0.833  0.292-  36 1.94  30 1.94   9 2.00


IMPORTANT INFORMATION: All symmetrisations will be switched off!
NOSYMM: (Re-)initialisation of all symmetry stuff for point group C_1.


----------------------------------------------------------------------------------------

                                     Primitive cell

  volume of cell :    1243.1447

  direct lattice vectors                    reciprocal lattice vectors
    11.376843452  0.000000000  0.000000000     0.087897843  0.000000000  0.000000000
     0.000000000 11.376843452  0.000000000     0.000000000  0.087897843  0.000000000
     0.000000000  0.000000000  9.604574204     0.000000000  0.000000000  0.104117057

  length of vectors
    11.376843452 11.376843452  9.604574204     0.087897843  0.087897843  0.104117057

  position of ions in fractional coordinates (direct lattice)
     0.166666672  0.166666672  0.500000000
     0.166666672  0.500000000  0.500000000
     0.166666672  0.833333313  0.500000000
     0.500000000  0.166666672  0.500000000
     0.500000000  0.500000000  0.500000000
     0.500000000  0.833333313  0.500000000
     0.833333313  0.166666672  0.500000000
     0.833333313  0.500000000  0.500000000
     0.833333313  0.833333313  0.500000000
     0.166666672  0.000000000  0.750000000
     0.166666672  0.333333343  0.750000000
     0.166666672  0.666666687  0.750000000
     0.500000000  0.000000000  0.750000000
     0.500000000  0.333333343  0.750000000
     0.500000000  0.666666687  0.750000000
     0.833333313  0.000000000  0.750000000
     0.833333313  0.333333343  0.750000000
     0.833333313  0.666666687  0.750000000
     0.000000000  0.000000000  0.000000000
     0.000000000  0.333333343  0.000000000
     0.000000000  0.666666687  0.000000000
     0.333333343  0.000000000  0.000000000
     0.333333343  0.333333343  0.000000000
     0.333333343  0.666666687  0.000000000
     0.666666687  0.000000000  0.000000000
     0.666666687  0.333333343  0.000000000
     0.666666687  0.666666687  0.000000000
     0.000000000  0.166666672  0.250000000
     0.000000000  0.500000000  0.250000000
     0.000000000  0.833333313  0.250000000
     0.333333343  0.166666672  0.250000000
     0.333333343  0.500000000  0.250000000
     0.333333343  0.833333313  0.250000000
     0.666666687  0.166666672  0.250000000
     0.666666687  0.500000000  0.250000000
     0.666666687  0.833333313  0.250000000
     0.000000000  0.166666672  0.457898587
     0.000000000  0.500000000  0.457898587
     0.000000000  0.833333313  0.457898587
     0.333333343  0.166666672  0.457898587
     0.333333343  0.500000000  0.457898587
     0.333333343  0.833333313  0.457898587
     0.666666687  0.166666672  0.457898587
     0.666666687  0.500000000  0.457898587
     0.666666687  0.833333313  0.457898587
     0.166666672  0.166666672  0.707898617
     0.166666672  0.500000000  0.707898617
     0.166666672  0.833333313  0.707898617
     0.500000000  0.166666672  0.707898617
     0.500000000  0.500000000  0.707898617
     0.500000000  0.833333313  0.707898617
     0.833333313  0.166666672  0.707898617
     0.833333313  0.500000000  0.707898617
     0.833333313  0.833333313  0.707898617
     0.166666672  0.000000000  0.542101383
     0.166666672  0.333333343  0.542101383
     0.166666672  0.666666687  0.542101383
     0.500000000  0.000000000  0.542101383
     0.500000000  0.333333343  0.542101383
     0.500000000  0.666666687  0.542101383
     0.833333313  0.000000000  0.542101383
     0.833333313  0.333333343  0.542101383
     0.833333313  0.666666687  0.542101383
     0.000000000  0.000000000  0.792101383
     0.000000000  0.333333343  0.792101383
     0.000000000  0.666666687  0.792101383
     0.333333343  0.000000000  0.792101383
     0.333333343  0.333333343  0.792101383
     0.333333343  0.666666687  0.792101383
     0.666666687  0.000000000  0.792101383
     0.666666687  0.333333343  0.792101383
     0.666666687  0.666666687  0.792101383
     0.166666672  0.000000000  0.957898617
     0.166666672  0.333333343  0.957898617
     0.166666672  0.666666687  0.957898617
     0.500000000  0.000000000  0.957898617
     0.500000000  0.333333343  0.957898617
     0.500000000  0.666666687  0.957898617
     0.833333313  0.000000000  0.957898617
     0.833333313  0.333333343  0.957898617
     0.833333313  0.666666687  0.957898617
     0.000000000  0.000000000  0.207898602
     0.000000000  0.333333343  0.207898602
     0.000000000  0.666666687  0.207898602
     0.333333343  0.000000000  0.207898602
     0.333333343  0.333333343  0.207898602
     0.333333343  0.666666687  0.207898602
     0.666666687  0.000000000  0.207898602
     0.666666687  0.333333343  0.207898602
     0.666666687  0.666666687  0.207898602
     0.000000000  0.166666672  0.042101406
     0.000000000  0.500000000  0.042101406
     0.000000000  0.833333313  0.042101406
     0.333333343  0.166666672  0.042101406
     0.333333343  0.500000000  0.042101406
     0.333333343  0.833333313  0.042101406
     0.666666687  0.166666672  0.042101406
     0.666666687  0.500000000  0.042101406
     0.666666687  0.833333313  0.042101406
     0.166666672  0.166666672  0.292101413
     0.166666672  0.500000000  0.292101413
     0.166666672  0.833333313  0.292101413
     0.500000000  0.166666672  0.292101413
     0.500000000  0.500000000  0.292101413
     0.500000000  0.833333313  0.292101413
     0.833333313  0.166666672  0.292101413
     0.833333313  0.500000000  0.292101413
     0.833333313  0.833333313  0.292101413

  ion indices of the primitive-cell ions
   primitive index   ion index
                 1           1
                 2           2
                 3           3
                 4           4
                 5           5
                 6           6
                 7           7
                 8           8
                 9           9
                10          10
                11          11
                12          12
                13          13
                14          14
                15          15
                16          16
                17          17
                18          18
                19          19
                20          20
                21          21
                22          22
                23          23
                24          24
                25          25
                26          26
                27          27
                28          28
                29          29
                30          30
                31          31
                32          32
                33          33
                34          34
                35          35
                36          36
                37          37
                38          38
                39          39
                40          40
                41          41
                42          42
                43          43
                44          44
                45          45
                46          46
                47          47
                48          48
                49          49
                50          50
                51          51
                52          52
                53          53
                54          54
                55          55
                56          56
                57          57
                58          58
                59          59
                60          60
                61          61
                62          62
                63          63
                64          64
                65          65
                66          66
                67          67
                68          68
                69          69
                70          70
                71          71
                72          72
                73          73
                74          74
                75          75
                76          76
                77          77
                78          78
                79          79
                80          80
                81          81
                82          82
                83          83
                84          84
                85          85
                86          86
                87          87
                88          88
                89          89
                90          90
                91          91
                92          92
                93          93
                94          94
                95          95
                96          96
                97          97
                98          98
                99          99
               100         100
               101         101
               102         102
               103         103
               104         104
               105         105
               106         106
               107         107
               108         108

----------------------------------------------------------------------------------------



 KPOINTS: K-Points

Automatic generation of k-mesh.
 Grid dimensions read from file:
 generate k-points for:    2    2    2

 Generating k-lattice:

  Cartesian coordinates                     Fractional coordinates (reciprocal lattice)
     0.043948922  0.000000000  0.000000000     0.500000000  0.000000000  0.000000000
     0.000000000  0.043948922  0.000000000     0.000000000  0.500000000  0.000000000
     0.000000000  0.000000000  0.052058529     0.000000000  0.000000000  0.500000000

  Length of vectors
     0.043948922  0.043948922  0.052058529

  Shift w.r.t. Gamma in fractional coordinates (k-lattice)
     0.500000000  0.500000000  0.500000000


 Subroutine IBZKPT returns following result:
 ===========================================

 Found      4 irreducible k-points:

 Following reciprocal coordinates:
            Coordinates               Weight
  0.250000  0.250000  0.250000      2.000000
 -0.250000  0.250000  0.250000      2.000000
 -0.250000 -0.250000  0.250000      2.000000
  0.250000 -0.250000  0.250000      2.000000

 Following cartesian coordinates:
            Coordinates               Weight
  0.021974  0.021974  0.026029      2.000000
 -0.021974  0.021974  0.026029      2.000000
 -0.021974 -0.021974  0.026029      2.000000
  0.021974 -0.021974  0.026029      2.000000


 Subroutine IBZKPT_HF returns following result:
 ==============================================

 Found      8 k-points in 1st BZ
 the following      8 k-points will be used (e.g. in the exchange kernel)
 Following reciprocal coordinates:   # in IRBZ
  0.250000  0.250000  0.250000    0.12500000   1 t-inv F
 -0.250000  0.250000  0.250000    0.12500000   2 t-inv F
 -0.250000 -0.250000  0.250000    0.12500000   3 t-inv F
  0.250000 -0.250000  0.250000    0.12500000   4 t-inv F
 -0.250000 -0.250000 -0.250000    0.12500000   1 t-inv T
  0.250000 -0.250000 -0.250000    0.12500000   2 t-inv T
  0.250000  0.250000 -0.250000    0.12500000   3 t-inv T
 -0.250000  0.250000 -0.250000    0.12500000   4 t-inv T


--------------------------------------------------------------------------------------------------------




 Dimension of arrays:
   k-points           NKPTS =      4   k-points in BZ     NKDIM =      4   number of bands    NBANDS=    476
   number of dos      NEDOS =    301   number of ions     NIONS =    108
   non local maximal  LDIM  =      6   non local SUM 2l+1 LMDIM =     18
   total plane-waves  NPLWV = 150528
   max r-space proj   IRMAX =   1791   max aug-charges    IRDMAX=   4900
   dimension x,y,z NGX =    56 NGY =   56 NGZ =   48
   dimension x,y,z NGXF=   112 NGYF=  112 NGZF=   96
   support grid    NGXF=   112 NGYF=  112 NGZF=   96
   ions per type =              36  72
   NGX,Y,Z   is equivalent  to a cutoff of   8.18,  8.18,  8.31 a.u.
   NGXF,Y,Z  is equivalent  to a cutoff of  16.37, 16.37, 16.62 a.u.

 SYSTEM =  unknown system
 POSCAR =  Ti4 O8

 Startparameter for this run:
   NWRITE =      2    write-flag & timer
   PREC   = normal    normal or accurate (medium, high low for compatibility)
   ISTART =      0    job   : 0-new  1-cont  2-samecut
   ICHARG =      2    charge: 1-file 2-atom 10-const
   ISPIN  =      1    spin polarized calculation?
   LNONCOLLINEAR =      F non collinear calculations
   LSORBIT =      F    spin-orbit coupling
   INIWAV =      1    electr: 0-lowe 1-rand  2-diag
   LASPH  =      F    aspherical Exc in radial PAW
 Electronic Relaxation 1
   ENCUT  =  400.0 eV  29.40 Ry    5.42 a.u.  18.55 18.55 15.66*2*pi/ulx,y,z
   ENINI  =  400.0     initial cutoff
   ENAUG  =  605.4 eV  augmentation charge cutoff
   NELM   =     80;   NELMIN=  4; NELMDL= -5     # of ELM steps
   EDIFF  = 0.1E-06   stopping-criterion for ELM
   LREAL  =      T    real-space projection
   NLSPLINE    = F    spline interpolate recip. space projectors
   LCOMPAT=      F    compatible to vasp.4.4
   GGA_COMPAT  = T    GGA compatible to vasp.4.4-vasp.4.6
   LMAXPAW     = -100 max onsite density
   LMAXMIX     =    2 max onsite mixed and CHGCAR
   VOSKOWN=      0    Vosko Wilk Nusair interpolation
   ROPT   =   -0.00050  -0.00050
 Ionic relaxation
   EDIFFG = 0.1E-05   stopping-criterion for IOM
   NSW    =      0    number of steps for IOM
   NBLOCK =      1;   KBLOCK =      1    inner block; outer block
   IBRION =     -1    ionic relax: 0-MD 1-quasi-New 2-CG
   NFREE  =      0    steps in history (QN), initial steepest desc. (CG)
   ISIF   =      2    stress and relaxation
   IWAVPR =     10    prediction:  0-non 1-charg 2-wave 3-comb
   ISYM   =      0    0-nonsym 1-usesym 2-fastsym
   LCORR  =      T    Harris-Foulkes like correction to forces

   POTIM  = 0.5000    time-step for ionic-motion
   TEIN   =    0.0    initial temperature
   TEBEG  =    0.0;   TEEND  =   0.0 temperature during run
   SMASS  =  -3.00    Nose mass-parameter (am)
   estimated Nose-frequenzy (Omega)   =  0.10E-29 period in steps = 0.13E+47 mass=  -0.296E-26a.u.
   SCALEE = 1.0000    scale energy and forces
   NPACO  =    256;   APACO  = 10.0  distance and # of slots for P.C.
   PSTRESS=    0.0 pullay stress

  Mass of Ions in am
   POMASS =  47.88 16.00
  Ionic Valenz
   ZVAL   =  10.00  6.00
  Atomic Wigner-Seitz radii
   RWIGS  =  -1.00 -1.00
  virtual crystal weights
   VCA    =   1.00  1.00
   NELECT =     792.0000    total number of electrons
   NUPDOWN=      -1.0000    fix difference up-down

 DOS related values:
   EMIN   =  10.00;   EMAX   =-10.00  energy-range for DOS
   EFERMI =   0.00
   ISMEAR =     0;   SIGMA  =   0.10  broadening in eV -4-tet -1-fermi 0-gaus

 Electronic relaxation 2 (details)
   IALGO  =     38    algorithm
   LDIAG  =      T    sub-space diagonalisation (order eigenvalues)
   LSUBROT=      F    optimize rotation matrix (better conditioning)
   TURBO    =      0    0=normal 1=particle mesh
   IRESTART =      0    0=no restart 2=restart with 2 vectors
   NREBOOT  =      0    no. of reboots
   NMIN     =      0    reboot dimension
   EREF     =   0.00    reference energy to select bands
   IMIX   =      4    mixing-type and parameters
     AMIX     =   0.40;   BMIX     =  1.00
     AMIX_MAG =   1.60;   BMIX_MAG =  1.00
     AMIN     =   0.10
     WC   =   100.;   INIMIX=   1;  MIXPRE=   1;  MAXMIX= -45

 Intra band minimization:
   WEIMIN = 0.0000     energy-eigenvalue tresh-hold
   EBREAK =  0.53E-10  absolut break condition
   DEPER  =   0.30     relativ break condition

   TIME   =   0.40     timestep for ELM

  volume/ion in A,a.u.               =      11.51        77.68
  Fermi-wavevector in a.u.,A,eV,Ry     =   1.408670  2.662001 26.998745  1.984352
  Thomas-Fermi vector in A             =   2.530804

 Write flags
   LWAVE        =      F    write WAVECAR
   LDOWNSAMPLE  =      F    k-point downsampling of WAVECAR
   LCHARG       =      F    write CHGCAR
   LVTOT        =      F    write LOCPOT, total local potential
   LVHAR        =      F    write LOCPOT, Hartree potential only
   LELF         =      F    write electronic localiz. function (ELF)
   LORBIT       =      0    0 simple, 1 ext, 2 COOP (PROOUT), +10 PAW based schemes


 Dipole corrections
   LMONO  =      F    monopole corrections only (constant potential shift)
   LDIPOL =      F    correct potential (dipole corrections)
   IDIPOL =      0    1-x, 2-y, 3-z, 4-all directions
   EPSILON=  1.0000000 bulk dielectric constant

 Exchange correlation treatment:
   GGA     =    --    GGA type
   LEXCH   =     8    internal setting for exchange type
   LIBXC   =     F    Libxc
   VOSKOWN =     0    Vosko Wilk Nusair interpolation
   LHFCALC =     F    Hartree Fock is set to
   LHFONE  =     F    Hartree Fock one center treatment
   AEXX    =    0.0000 exact exchange contribution

 Linear response parameters
   LEPSILON=     T    determine dielectric tensor
   LRPA    =     F    only Hartree local field effects (RPA)
   LNABLA  =     F    use nabla operator in PAW spheres
   LVEL    =     F    velocity operator in full k-point grid
   CSHIFT  =0.1000    complex shift for real part using Kramers Kronig
   OMEGAMAX=  -1.0    maximum frequency
   DEG_THRESHOLD= 0.2000000E-02 threshold for treating states as degnerate
   RTIME   =   -0.100 relaxation time in fs
  (WPLASMAI=    0.000 imaginary part of plasma frequency in eV, 0.658/RTIME)
   DFIELD  = 0.0000000 0.0000000 0.0000000 field for delta impulse in time

  Optional k-point grid parameters
   LKPOINTS_OPT  =     F    use optional k-point grid
   KPOINTS_OPT_MODE=     1    mode for optional k-point grid

 Orbital magnetization related:
   ORBITALMAG=     F  switch on orbital magnetization
   LCHIMAG   =     F  perturbation theory with respect to B field
   DQ        =  0.001000  dq finite difference perturbation B field
   LLRAUG    =     F  two centre corrections for induced B field

 PEAD related settings:
   LPEAD      =     T    switch on PEAD
   IPEAD      =     4    finite difference order for dpsi/dk
   LCALCPOL   =     F    calculate macroscopic polarization
   LCALCEPS   =     F    calculate dielectric tensor
   EFIELD_PEAD=    0.0000    0.0000    0.0000
   SKIP_EDOTP =     F
   LRPA       =     F
   SKIP_SCF   =     F


--------------------------------------------------------------------------------------------------------


 Static calculation
 charge density and potential will be updated during run
 non-spin polarized calculation
 Variant of blocked Davidson
 Davidson routine will perform the subspace rotation
 perform sub-space diagonalisation
    after iterative eigenvector-optimisation
 modified Broyden-mixing scheme, WC =      100.0
 initial mixing is a Kerker type mixing with AMIX =  0.4000 and BMIX =      1.0000
 Hartree-type preconditioning will be used
 using additional bands           80
 real space projection scheme for non local part
 use partial core corrections
 calculate Harris-corrections to forces
   (improved forces if not selfconsistent)
 use gradient corrections
 use of overlap-Matrix (Vanderbilt PP)
 Gauss-broadening in eV      SIGMA  =   0.10


--------------------------------------------------------------------------------------------------------


  energy-cutoff  :      400.00
  volume of cell :     1243.14
      direct lattice vectors                 reciprocal lattice vectors
    11.376843452  0.000000000  0.000000000     0.087897843  0.000000000  0.000000000
     0.000000000 11.376843452  0.000000000     0.000000000  0.087897843  0.000000000
     0.000000000  0.000000000  9.604574204     0.000000000  0.000000000  0.104117057

  length of vectors
    11.376843452 11.376843452  9.604574204     0.087897843  0.087897843  0.104117057



 k-points in units of 2pi/SCALE and weight: K-Points
   0.02197446  0.02197446  0.02602926       0.250
  -0.02197446  0.02197446  0.02602926       0.250
  -0.02197446 -0.02197446  0.02602926       0.250
   0.02197446 -0.02197446  0.02602926       0.250

 k-points in reciprocal lattice and weights: K-Points
   0.25000000  0.25000000  0.25000000       0.250
  -0.25000000  0.25000000  0.25000000       0.250
  -0.25000000 -0.25000000  0.25000000       0.250
   0.25000000 -0.25000000  0.25000000       0.250

 position of ions in fractional coordinates (direct lattice)
   0.16666667  0.16666667  0.50000000
   0.16666667  0.50000000  0.50000000
   0.16666667  0.83333331  0.50000000
   0.50000000  0.16666667  0.50000000
   0.50000000  0.50000000  0.50000000
   0.50000000  0.83333331  0.50000000
   0.83333331  0.16666667  0.50000000
   0.83333331  0.50000000  0.50000000
   0.83333331  0.83333331  0.50000000
   0.16666667  0.00000000  0.75000000
   0.16666667  0.33333334  0.75000000
   0.16666667  0.66666669  0.75000000
   0.50000000  0.00000000  0.75000000
   0.50000000  0.33333334  0.75000000
   0.50000000  0.66666669  0.75000000
   0.83333331  0.00000000  0.75000000
   0.83333331  0.33333334  0.75000000
   0.83333331  0.66666669  0.75000000
   0.00000000  0.00000000  0.00000000
   0.00000000  0.33333334  0.00000000
   0.00000000  0.66666669  0.00000000
   0.33333334  0.00000000  0.00000000
   0.33333334  0.33333334  0.00000000
   0.33333334  0.66666669  0.00000000
   0.66666669  0.00000000  0.00000000
   0.66666669  0.33333334  0.00000000
   0.66666669  0.66666669  0.00000000
   0.00000000  0.16666667  0.25000000
   0.00000000  0.50000000  0.25000000
   0.00000000  0.83333331  0.25000000
   0.33333334  0.16666667  0.25000000
   0.33333334  0.50000000  0.25000000
   0.33333334  0.83333331  0.25000000
   0.66666669  0.16666667  0.25000000
   0.66666669  0.50000000  0.25000000
   0.66666669  0.83333331  0.25000000
   0.00000000  0.16666667  0.45789859
   0.00000000  0.50000000  0.45789859
   0.00000000  0.83333331  0.45789859
   0.33333334  0.16666667  0.45789859
   0.33333334  0.50000000  0.45789859
   0.33333334  0.83333331  0.45789859
   0.66666669  0.16666667  0.45789859
   0.66666669  0.50000000  0.45789859
   0.66666669  0.83333331  0.45789859
   0.16666667  0.16666667  0.70789862
   0.16666667  0.50000000  0.70789862
   0.16666667  0.83333331  0.70789862
   0.50000000  0.16666667  0.70789862
   0.50000000  0.50000000  0.70789862
   0.50000000  0.83333331  0.70789862
   0.83333331  0.16666667  0.70789862
   0.83333331  0.50000000  0.70789862
   0.83333331  0.83333331  0.70789862
   0.16666667  0.00000000  0.54210138
   0.16666667  0.33333334  0.54210138
   0.16666667  0.66666669  0.54210138
   0.50000000  0.00000000  0.54210138
   0.50000000  0.33333334  0.54210138
   0.50000000  0.66666669  0.54210138
   0.83333331  0.00000000  0.54210138
   0.83333331  0.33333334  0.54210138
   0.83333331  0.66666669  0.54210138
   0.00000000  0.00000000  0.79210138
   0.00000000  0.33333334  0.79210138
   0.00000000  0.66666669  0.79210138
   0.33333334  0.00000000  0.79210138
   0.33333334  0.33333334  0.79210138
   0.33333334  0.66666669  0.79210138
   0.66666669  0.00000000  0.79210138
   0.66666669  0.33333334  0.79210138
   0.66666669  0.66666669  0.79210138
   0.16666667  0.00000000  0.95789862
   0.16666667  0.33333334  0.95789862
   0.16666667  0.66666669  0.95789862
   0.50000000  0.00000000  0.95789862
   0.50000000  0.33333334  0.95789862
   0.50000000  0.66666669  0.95789862
   0.83333331  0.00000000  0.95789862
   0.83333331  0.33333334  0.95789862
   0.83333331  0.66666669  0.95789862
   0.00000000  0.00000000  0.20789860
   0.00000000  0.33333334  0.20789860
   0.00000000  0.66666669  0.20789860
   0.33333334  0.00000000  0.20789860
   0.33333334  0.33333334  0.20789860
   0.33333334  0.66666669  0.20789860
   0.66666669  0.00000000  0.20789860
   0.66666669  0.33333334  0.20789860
   0.66666669  0.66666669  0.20789860
   0.00000000  0.16666667  0.04210141
   0.00000000  0.50000000  0.04210141
   0.00000000  0.83333331  0.04210141
   0.33333334  0.16666667  0.04210141
   0.33333334  0.50000000  0.04210141
   0.33333334  0.83333331  0.04210141
   0.66666669  0.16666667  0.04210141
   0.66666669  0.50000000  0.04210141
   0.66666669  0.83333331  0.04210141
   0.16666667  0.16666667  0.29210141
   0.16666667  0.50000000  0.29210141
   0.16666667  0.83333331  0.29210141
   0.50000000  0.16666667  0.29210141
   0.50000000  0.50000000  0.29210141
   0.50000000  0.83333331  0.29210141
   0.83333331  0.16666667  0.29210141
   0.83333331  0.50000000  0.29210141
   0.83333331  0.83333331  0.29210141

 position of ions in cartesian coordinates  (Angst):
   1.89614063  1.89614063  4.80228710
   1.89614063  5.68842173  4.80228710
   1.89614063  9.48070265  4.80228710
   5.68842173  1.89614063  4.80228710
   5.68842173  5.68842173  4.80228710
   5.68842173  9.48070265  4.80228710
   9.48070265  1.89614063  4.80228710
   9.48070265  5.68842173  4.80228710
   9.48070265  9.48070265  4.80228710
   1.89614063  0.00000000  7.20343065
   1.89614063  3.79228126  7.20343065
   1.89614063  7.58456253  7.20343065
   5.68842173  0.00000000  7.20343065
   5.68842173  3.79228126  7.20343065
   5.68842173  7.58456253  7.20343065
   9.48070265  0.00000000  7.20343065
   9.48070265  3.79228126  7.20343065
   9.48070265  7.58456253  7.20343065
   0.00000000  0.00000000  0.00000000
   0.00000000  3.79228126  0.00000000
   0.00000000  7.58456253  0.00000000
   3.79228126  0.00000000  0.00000000
   3.79228126  3.79228126  0.00000000
   3.79228126  7.58456253  0.00000000
   7.58456253  0.00000000  0.00000000
   7.58456253  3.79228126  0.00000000
   7.58456253  7.58456253  0.00000000
   0.00000000  1.89614063  2.40114355
   0.00000000  5.68842173  2.40114355
   0.00000000  9.48070265  2.40114355
   3.79228126  1.89614063  2.40114355
   3.79228126  5.68842173  2.40114355
   3.79228126  9.48070265  2.40114355
   7.58456253  1.89614063  2.40114355
   7.58456253  5.68842173  2.40114355
   7.58456253  9.48070265  2.40114355
   0.00000000  1.89614063  4.39792096
   0.00000000  5.68842173  4.39792096
   0.00000000  9.48070265  4.39792096
   3.79228126  1.89614063  4.39792096
   3.79228126  5.68842173  4.39792096
   3.79228126  9.48070265  4.39792096
   7.58456253  1.89614063  4.39792096
   7.58456253  5.68842173  4.39792096
   7.58456253  9.48070265  4.39792096
   1.89614063  1.89614063  6.79906479
   1.89614063  5.68842173  6.79906479
   1.89614063  9.48070265  6.79906479
   5.68842173  1.89614063  6.79906479
   5.68842173  5.68842173  6.79906479
   5.68842173  9.48070265  6.79906479
   9.48070265  1.89614063  6.79906479
   9.48070265  5.68842173  6.79906479
   9.48070265  9.48070265  6.79906479
   1.89614063  0.00000000  5.20665296
   1.89614063  3.79228126  5.20665296
   1.89614063  7.58456253  5.20665296
   5.68842173  0.00000000  5.20665296
   5.68842173  3.79228126  5.20665296
   5.68842173  7.58456253  5.20665296
   9.48070265  0.00000000  5.20665296
   9.48070265  3.79228126  5.20665296
   9.48070265  7.58456253  5.20665296
   0.00000000  0.00000000  7.60779651
   0.00000000  3.79228126  7.60779651
   0.00000000  7.58456253  7.60779651
   3.79228126  0.00000000  7.60779651
   3.79228126  3.79228126  7.60779651
   3.79228126  7.58456253  7.60779651
   7.58456253  0.00000000  7.60779651
   7.58456253  3.79228126  7.60779651
   7.58456253  7.58456253  7.60779651
   1.89614063  0.00000000  9.20020834
   1.89614063  3.79228126  9.20020834
   1.89614063  7.58456253  9.20020834
   5.68842173  0.00000000  9.20020834
   5.68842173  3.79228126  9.20020834
   5.68842173  7.58456253  9.20020834
   9.48070265  0.00000000  9.20020834
   9.48070265  3.79228126  9.20020834
   9.48070265  7.58456253  9.20020834
   0.00000000  0.00000000  1.99677755
   0.00000000  3.79228126  1.99677755
   0.00000000  7.58456253  1.99677755
   3.79228126  0.00000000  1.99677755
   3.79228126  3.79228126  1.99677755
   3.79228126  7.58456253  1.99677755
   7.58456253  0.00000000  1.99677755
   7.58456253  3.79228126  1.99677755
   7.58456253  7.58456253  1.99677755
   0.00000000  1.89614063  0.40436607
   0.00000000  5.68842173  0.40436607
   0.00000000  9.48070265  0.40436607
   3.79228126  1.89614063  0.40436607
   3.79228126  5.68842173  0.40436607
   3.79228126  9.48070265  0.40436607
   7.58456253  1.89614063  0.40436607
   7.58456253  5.68842173  0.40436607
   7.58456253  9.48070265  0.40436607
   1.89614063  1.89614063  2.80550970
   1.89614063  5.68842173  2.80550970
   1.89614063  9.48070265  2.80550970
   5.68842173  1.89614063  2.80550970
   5.68842173  5.68842173  2.80550970
   5.68842173  9.48070265  2.80550970
   9.48070265  1.89614063  2.80550970
   9.48070265  5.68842173  2.80550970
   9.48070265  9.48070265  2.80550970



--------------------------------------------------------------------------------------------------------


 k-point   1 :   0.2500 0.2500 0.2500  plane waves:   22590
 k-point   2 :  -0.2500 0.2500 0.2500  plane waves:   22590
 k-point   3 :  -0.2500-0.2500 0.2500  plane waves:   22590
 k-point   4 :   0.2500-0.2500 0.2500  plane waves:   22590

 maximum and minimum number of plane-waves per node :     22590    22590

 maximum number of plane-waves:     22590
 maximum index in each direction:
   IXMAX=   18   IYMAX=   18   IZMAX=   15
   IXMIN=  -18   IYMIN=  -18   IZMIN=  -15


 serial   3D FFT for wavefunctions
 parallel 3D FFT for charge:
    minimum data exchange during FFTs selected (reduces bandwidth)


 total amount of memory used by VASP MPI-rank0   266725. kBytes
=======================================================================

   base      :      30000. kBytes
   nonlr-proj:      19556. kBytes
   fftplans  :      10927. kBytes
   grid      :      23181. kBytes
   one-center:       1679. kBytes
   wavefun   :     181382. kBytes

     INWAV:  cpu time      0.0001: real time      0.0006
 Broyden mixing: mesh for mixing (old mesh)
   NGX = 37   NGY = 37   NGZ = 31
  (NGX  =112   NGY  =112   NGZ  = 96)
  gives a total of  42439 points

 initial charge density was supplied:
 charge density of overlapping atoms calculated
 number of electron     792.0000000 magnetization
 keeping initial charge density in first step


--------------------------------------------------------------------------------------------------------


 Maximum index for non-local projection operator         1743
 Maximum index for augmentation-charges         1189 (set IRDMAX)


--------------------------------------------------------------------------------------------------------


 First call to EWALD:  gamma=   0.165
 Maximum number of real-space cells 3x 3x 3
 Maximum number of reciprocal cells 3x 3x 3

    FEWALD:  cpu time      0.0051: real time      0.0052


--------------------------------------- Iteration      1(   1)  ---------------------------------------


    POTLOK:  cpu time      0.2374: real time      0.2399
    SETDIJ:  cpu time      0.0175: real time      0.0177
     EDDAV:  cpu time     16.5621: real time     16.7022
       DOS:  cpu time      0.0022: real time      0.0023
    --------------------------------------------
      LOOP:  cpu time     16.8193: real time     16.9620

 eigenvalue-minimisations  :  3824
 total energy-change (2. order) : 0.1155975E+05  (-0.3305535E+05)
 number of electron     792.0000000 magnetization
 augmentation part      792.0000000 magnetization

 Free energy of the ion-electron system (eV)
  ---------------------------------------------------
  alpha Z        PSCENC =      3563.47650690
  Ewald energy   TEWEN  =    -48589.53846470
  -Hartree energ DENC   =    -18840.34673848
  -exchange      EXHF   =         0.00000000
  -V(xc)+E(xc)   XCENC  =      3286.84851174
  PAW double counting   =     54431.09303398   -54537.79254336
  entropy T*S    EENTRO =        -0.14347895
  eigenvalues    EBANDS =      3589.75382806
  atomic energy  EATOM  =     68656.39924158
  Solvation  Ediel_sol  =         0.00000000
  ---------------------------------------------------
  free energy    TOTEN  =     11559.74989678 eV

  energy without entropy =    11559.89337573  energy(sigma->0) =    11559.82163625


--------------------------------------------------------------------------------------------------------




--------------------------------------- Iteration      1(   2)  ---------------------------------------


     EDDAV:  cpu time     16.6319: real time     16.7702
       DOS:  cpu time      0.0021: real time      0.0021
    --------------------------------------------
      LOOP:  cpu time     16.6339: real time     16.7723

 eigenvalue-minimisations  :  3808
 total energy-change (2. order) :-0.9986923E+04  (-0.9556429E+04)
 number of electron     792.0000000 magnetization
 augmentation part      792.0000000 magnetization

 Free energy of the ion-electron system (eV)
  ---------------------------------------------------
  alpha Z        PSCENC =      3563.47650690
  Ewald energy   TEWEN  =    -48589.53846470
  -Hartree energ DENC   =    -18840.34673848
  -exchange      EXHF   =         0.00000000
  -V(xc)+E(xc)   XCENC  =      3286.84851174
  PAW double counting   =     54431.09303398   -54537.79254336
  entropy T*S    EENTRO =        -0.28662367
  eigenvalues    EBANDS =     -6397.02629861
  atomic energy  EATOM  =     68656.39924158
  Solvation  Ediel_sol  =         0.00000000
  ---------------------------------------------------
  free energy    TOTEN  =      1572.82662538 eV

  energy without entropy =     1573.11324905  energy(sigma->0) =     1572.96993722


--------------------------------------------------------------------------------------------------------




--------------------------------------- Iteration      1(   3)  ---------------------------------------


     EDDAV:  cpu time     18.6133: real time     18.7648
       DOS:  cpu time      0.0012: real time      0.0012
    --------------------------------------------
      LOOP:  cpu time     18.6145: real time     18.7660

 eigenvalue-minimisations  :  4416
 total energy-change (2. order) :-0.2641377E+04  (-0.2569594E+04)
 number of electron     792.0000000 magnetization
 augmentation part      792.0000000 magnetization

 Free energy of the ion-electron system (eV)
  ---------------------------------------------------
  alpha Z        PSCENC =      3563.47650690
  Ewald energy   TEWEN  =    -48589.53846470
  -Hartree energ DENC   =    -18840.34673848
  -exchange      EXHF   =         0.00000000
  -V(xc)+E(xc)   XCENC  =      3286.84851174
  PAW double counting   =     54431.09303398   -54537.79254336
  entropy T*S    EENTRO =        -0.00000000
  eigenvalues    EBANDS =     -9038.68971463
  atomic energy  EATOM  =     68656.39924158
  Solvation  Ediel_sol  =         0.00000000
  ---------------------------------------------------
  free energy    TOTEN  =     -1068.55016696 eV

  energy without entropy =    -1068.55016696  energy(sigma->0) =    -1068.55016696


--------------------------------------------------------------------------------------------------------




--------------------------------------- Iteration      1(   4)  ---------------------------------------


     EDDAV:  cpu time     20.7982: real time     20.9652
       DOS:  cpu time      0.0012: real time      0.0012
    --------------------------------------------
      LOOP:  cpu time     20.7994: real time     20.9663

 eigenvalue-minimisations  :  5000
 total energy-change (2. order) :-0.2045994E+03  (-0.2034728E+03)
 number of electron     792.0000000 magnetization
 augmentation part      792.0000000 magnetization

 Free energy of the ion-electron system (eV)
  ---------------------------------------------------
  alpha Z        PSCENC =      3563.47650690
  Ewald energy   TEWEN  =    -48589.53846470
  -Hartree energ DENC   =    -18840.34673848
  -exchange      EXHF   =         0.00000000
  -V(xc)+E(xc)   XCENC  =      3286.84851174
  PAW double counting   =     54431.09303398   -54537.79254336
  entropy T*S    EENTRO =        -0.00000000
  eigenvalues    EBANDS =     -9243.28916298
  atomic energy  EATOM  =     68656.39924158
  Solvation  Ediel_sol  =         0.00000000
  ---------------------------------------------------
  free energy    TOTEN  =     -1273.14961531 eV

  energy without entropy =    -1273.14961531  energy(sigma->0) =    -1273.14961531


--------------------------------------------------------------------------------------------------------




--------------------------------------- Iteration      1(   5)  ---------------------------------------


     EDDAV:  cpu time     20.9793: real time     21.1479
       DOS:  cpu time      0.0007: real time      0.0007
    CHARGE:  cpu time      0.2436: real time      0.2451
    MIXING:  cpu time      0.0145: real time      0.0147
    --------------------------------------------
      LOOP:  cpu time     21.2382: real time     21.4085

 eigenvalue-minimisations  :  4960
 total energy-change (2. order) :-0.5590204E+01  (-0.5578020E+01)
 number of electron     792.0003054 magnetization
 augmentation part      202.2430492 magnetization

 Broyden mixing:
  rms(total) = 0.17235E+02    rms(broyden)= 0.17234E+02
  rms(prec ) = 0.19173E+02
  weight for this iteration     100.00

 Free energy of the ion-electron system (eV)
  ---------------------------------------------------
  alpha Z        PSCENC =      3563.47650690
  Ewald energy   TEWEN  =    -48589.53846470
  -Hartree energ DENC   =    -18840.34673848
  -exchange      EXHF   =         0.00000000
  -V(xc)+E(xc)   XCENC  =      3286.84851174
  PAW double counting   =     54431.09303398   -54537.79254336
  entropy T*S    EENTRO =        -0.00000000
  eigenvalues    EBANDS =     -9248.87936680
  atomic energy  EATOM  =     68656.39924158
  Solvation  Ediel_sol  =         0.00000000
  ---------------------------------------------------
  free energy    TOTEN  =     -1278.73981914 eV

  energy without entropy =    -1278.73981914  energy(sigma->0) =    -1278.73981914


--------------------------------------------------------------------------------------------------------




--------------------------------------- Iteration      1(   6)  ---------------------------------------


    POTLOK:  cpu time      0.2400: real time      0.2423
    SETDIJ:  cpu time      0.0159: real time      0.0160
     EDDAV:  cpu time     20.7356: real time     20.9004
       DOS:  cpu time      0.0009: real time      0.0009
    CHARGE:  cpu time      0.2376: real time      0.2392
    MIXING:  cpu time      0.0156: real time      0.0187
    --------------------------------------------
      LOOP:  cpu time     21.2458: real time     21.4178

 eigenvalue-minimisations  :  4984
 total energy-change (2. order) : 0.3021963E+03  (-0.1975555E+03)
 number of electron     792.0002462 magnetization
 augmentation part      214.0995243 magnetization

 Broyden mixing:
  rms(total) = 0.52938E+01    rms(broyden)= 0.52889E+01
  rms(prec ) = 0.58220E+01
  weight for this iteration     100.00

 eigenvalues of (default mixing * dielectric matrix)
  average eigenvalue GAMMA=   0.9645
  0.9645

 Free energy of the ion-electron system (eV)
  ---------------------------------------------------
  alpha Z        PSCENC =      3563.47650690
  Ewald energy   TEWEN  =    -48589.53846470
  -Hartree energ DENC   =    -19064.81544336
  -exchange      EXHF   =         0.00000000
  -V(xc)+E(xc)   XCENC  =      3337.83649598
  PAW double counting   =     68248.70941401   -68481.02228015
  entropy T*S    EENTRO =        -0.00000000
  eigenvalues    EBANDS =     -8647.58900214
  atomic energy  EATOM  =     68656.39924158
  Solvation  Ediel_sol  =         0.00000000
  ---------------------------------------------------
  free energy    TOTEN  =      -976.54353187 eV

  energy without entropy =     -976.54353187  energy(sigma->0) =     -976.54353187


--------------------------------------------------------------------------------------------------------




--------------------------------------- Iteration      1(   7)  ---------------------------------------


    POTLOK:  cpu time      0.2390: real time      0.2412
    SETDIJ:  cpu time      0.0168: real time      0.0170
     EDDAV:  cpu time     21.8534: real time     22.0307
       DOS:  cpu time      0.0011: real time      0.0011
    CHARGE:  cpu time      0.2415: real time      0.2432
    MIXING:  cpu time      0.0139: real time      0.0145
    --------------------------------------------
      LOOP:  cpu time     22.3656: real time     22.5476

 eigenvalue-minimisations  :  5328
 total energy-change (2. order) : 0.4463650E+01  (-0.2839788E+02)
 number of electron     792.0002652 magnetization
 augmentation part      207.3515492 magnetization

 Broyden mixing:
  rms(total) = 0.45851E+01    rms(broyden)= 0.45848E+01
  rms(prec ) = 0.47774E+01
  weight for this iteration     100.00

 eigenvalues of (default mixing * dielectric matrix)
  average eigenvalue GAMMA=   1.8498
  0.7378  2.9618

 Free energy of the ion-electron system (eV)
  ---------------------------------------------------
  alpha Z        PSCENC =      3563.47650690
  Ewald energy   TEWEN  =    -48589.53846470
  -Hartree energ DENC   =    -18905.83588296
  -exchange      EXHF   =         0.00000000
  -V(xc)+E(xc)   XCENC  =      3318.52635266
  PAW double counting   =     75231.13704149   -75474.49354390
  entropy T*S    EENTRO =        -0.00000000
  eigenvalues    EBANDS =     -8771.75113254
  atomic energy  EATOM  =     68656.39924158
  Solvation  Ediel_sol  =         0.00000000
  ---------------------------------------------------
  free energy    TOTEN  =      -972.07988148 eV

  energy without entropy =     -972.07988148  energy(sigma->0) =     -972.07988148


--------------------------------------------------------------------------------------------------------




--------------------------------------- Iteration      1(   8)  ---------------------------------------


    POTLOK:  cpu time      0.2388: real time      0.2411
    SETDIJ:  cpu time      0.0166: real time      0.0167
     EDDAV:  cpu time     20.8710: real time     21.0378
       DOS:  cpu time      0.0011: real time      0.0011
    CHARGE:  cpu time      0.2429: real time      0.2444
    MIXING:  cpu time      0.0152: real time      0.0154
    --------------------------------------------
      LOOP:  cpu time     21.3856: real time     21.5565

 eigenvalue-minimisations  :  5032
 total energy-change (2. order) :-0.2694091E+00  (-0.1115325E+02)
 number of electron     792.0002586 magnetization
 augmentation part      215.6258642 magnetization

 Broyden mixing:
  rms(total) = 0.33892E+01    rms(broyden)= 0.33891E+01
  rms(prec ) = 0.36926E+01
  weight for this iteration     100.00

 eigenvalues of (default mixing * dielectric matrix)
  average eigenvalue GAMMA=   1.2346
  2.1765  0.9287  0.5985

 Free energy of the ion-electron system (eV)
  ---------------------------------------------------
  alpha Z        PSCENC =      3563.47650690
  Ewald energy   TEWEN  =    -48589.53846470
  -Hartree energ DENC   =    -18529.19419669
  -exchange      EXHF   =         0.00000000
  -V(xc)+E(xc)   XCENC  =      3303.80613826
  PAW double counting   =     93894.56382811   -94210.55594581
  entropy T*S    EENTRO =        -0.00000000
  eigenvalues    EBANDS =     -9061.30639825
  atomic energy  EATOM  =     68656.39924158
  Solvation  Ediel_sol  =         0.00000000
  ---------------------------------------------------
  free energy    TOTEN  =      -972.34929060 eV

  energy without entropy =     -972.34929060  energy(sigma->0) =     -972.34929060


--------------------------------------------------------------------------------------------------------




--------------------------------------- Iteration      1(   9)  ---------------------------------------


    POTLOK:  cpu time      0.2427: real time      0.2452
    SETDIJ:  cpu time      0.0139: real time      0.0140
     EDDAV:  cpu time     21.0299: real time     21.1994
       DOS:  cpu time      0.0009: real time      0.0009
    CHARGE:  cpu time      0.2408: real time      0.2423
    MIXING:  cpu time      0.0150: real time      0.0160
    --------------------------------------------
      LOOP:  cpu time     21.5431: real time     21.7177

 eigenvalue-minimisations  :  5080
 total energy-change (2. order) : 0.5706781E+01  (-0.3530589E+01)
 number of electron     792.0002633 magnetization
 augmentation part      211.4681619 magnetization

 Broyden mixing:
  rms(total) = 0.24387E+00    rms(broyden)= 0.24310E+00
  rms(prec ) = 0.26724E+00
  weight for this iteration     100.00

 eigenvalues of (default mixing * dielectric matrix)
  average eigenvalue GAMMA=   1.3643
  2.3039  1.4464  1.0885  0.6185

 Free energy of the ion-electron system (eV)
  ---------------------------------------------------
  alpha Z        PSCENC =      3563.47650690
  Ewald energy   TEWEN  =    -48589.53846470
  -Hartree energ DENC   =    -18675.17843298
  -exchange      EXHF   =         0.00000000
  -V(xc)+E(xc)   XCENC  =      3308.73027997
  PAW double counting   =     88572.23469575   -88868.69939757
  entropy T*S    EENTRO =        -0.00000000
  eigenvalues    EBANDS =     -8934.06693819
  atomic energy  EATOM  =     68656.39924158
  Solvation  Ediel_sol  =         0.00000000
  ---------------------------------------------------
  free energy    TOTEN  =      -966.64250924 eV

  energy without entropy =     -966.64250924  energy(sigma->0) =     -966.64250924


--------------------------------------------------------------------------------------------------------




--------------------------------------- Iteration      1(  10)  ---------------------------------------


    POTLOK:  cpu time      0.2356: real time      0.2379
    SETDIJ:  cpu time      0.0171: real time      0.0172
     EDDAV:  cpu time     20.4279: real time     20.5921
       DOS:  cpu time      0.0008: real time      0.0008
    CHARGE:  cpu time      0.2329: real time      0.2344
    MIXING:  cpu time      0.0151: real time      0.0152
    --------------------------------------------
      LOOP:  cpu time     20.9295: real time     21.0977

 eigenvalue-minimisations  :  5208
 total energy-change (2. order) :-0.1117452E+00  (-0.1331576E+00)
 number of electron     792.0002619 magnetization
 augmentation part      211.6531705 magnetization

 Broyden mixing:
  rms(total) = 0.29788E+00    rms(broyden)= 0.29785E+00
  rms(prec ) = 0.34450E+00
  weight for this iteration     100.00

 eigenvalues of (default mixing * dielectric matrix)
  average eigenvalue GAMMA=   1.3780
  2.5393  1.8618  0.9448  0.9448  0.5991

 Free energy of the ion-electron system (eV)
  ---------------------------------------------------
  alpha Z        PSCENC =      3563.47650690
  Ewald energy   TEWEN  =    -48589.53846470
  -Hartree energ DENC   =    -18723.26868397
  -exchange      EXHF   =         0.00000000
  -V(xc)+E(xc)   XCENC  =      3312.31469652
  PAW double counting   =     89073.08501604   -89374.96141628
  entropy T*S    EENTRO =        -0.00000000
  eigenvalues    EBANDS =     -8884.26115052
  atomic energy  EATOM  =     68656.39924158
  Solvation  Ediel_sol  =         0.00000000
  ---------------------------------------------------
  free energy    TOTEN  =      -966.75425442 eV

  energy without entropy =     -966.75425442  energy(sigma->0) =     -966.75425442


--------------------------------------------------------------------------------------------------------




--------------------------------------- Iteration      1(  11)  ---------------------------------------


    POTLOK:  cpu time      0.2282: real time      0.2305
    SETDIJ:  cpu time      0.0085: real time      0.0086
     EDDAV:  cpu time     21.5536: real time     21.7321
       DOS:  cpu time      0.0011: real time      0.0011
    CHARGE:  cpu time      0.2411: real time      0.2426
    MIXING:  cpu time      0.0167: real time      0.0169
    --------------------------------------------
      LOOP:  cpu time     22.0493: real time     22.2317

 eigenvalue-minimisations  :  5352
 total energy-change (2. order) : 0.6847337E-01  (-0.3987366E-01)
 number of electron     792.0002625 magnetization
 augmentation part      211.2731379 magnetization

 Broyden mixing:
  rms(total) = 0.48643E-01    rms(broyden)= 0.48569E-01
  rms(prec ) = 0.58539E-01
  weight for this iteration     100.00

 eigenvalues of (default mixing * dielectric matrix)
  average eigenvalue GAMMA=   1.2922
  2.5536  1.5909  1.3316  1.0619  0.5770  0.6381

 Free energy of the ion-electron system (eV)
  ---------------------------------------------------
  alpha Z        PSCENC =      3563.47650690
  Ewald energy   TEWEN  =    -48589.53846470
  -Hartree energ DENC   =    -18738.23346386
  -exchange      EXHF   =         0.00000000
  -V(xc)+E(xc)   XCENC  =      3312.86584234
  PAW double counting   =     89195.07944927   -89497.50376588
  entropy T*S    EENTRO =        -0.00000000
  eigenvalues    EBANDS =     -8869.23112670
  atomic energy  EATOM  =     68656.39924158
  Solvation  Ediel_sol  =         0.00000000
  ---------------------------------------------------
  free energy    TOTEN  =      -966.68578105 eV

  energy without entropy =     -966.68578105  energy(sigma->0) =     -966.68578105


--------------------------------------------------------------------------------------------------------




--------------------------------------- Iteration      1(  12)  ---------------------------------------


    POTLOK:  cpu time      0.2387: real time      0.2433
    SETDIJ:  cpu time      0.0088: real time      0.0089
     EDDAV:  cpu time     21.9071: real time     22.0865
       DOS:  cpu time      0.0009: real time      0.0009
    CHARGE:  cpu time      0.2378: real time      0.2392
    MIXING:  cpu time      0.0185: real time      0.0188
    --------------------------------------------
      LOOP:  cpu time     22.4118: real time     22.5977

 eigenvalue-minimisations  :  5336
 total energy-change (2. order) :-0.2590391E-02  (-0.7600679E-02)
 number of electron     792.0002627 magnetization
 augmentation part      211.1895526 magnetization

 Broyden mixing:
  rms(total) = 0.47699E-01    rms(broyden)= 0.47650E-01
  rms(prec ) = 0.56736E-01
  weight for this iteration     100.00

 eigenvalues of (default mixing * dielectric matrix)
  average eigenvalue GAMMA=   1.2696
  2.5846  1.7390  1.7390  0.9596  0.7535  0.5788  0.5329

 Free energy of the ion-electron system (eV)
  ---------------------------------------------------
  alpha Z        PSCENC =      3563.47650690
  Ewald energy   TEWEN  =    -48589.53846470
  -Hartree energ DENC   =    -18735.29181524
  -exchange      EXHF   =         0.00000000
  -V(xc)+E(xc)   XCENC  =      3312.54501312
  PAW double counting   =     89235.67202548   -89537.64302499
  entropy T*S    EENTRO =        -0.00000000
  eigenvalues    EBANDS =     -8872.30785360
  atomic energy  EATOM  =     68656.39924158
  Solvation  Ediel_sol  =         0.00000000
  ---------------------------------------------------
  free energy    TOTEN  =      -966.68837144 eV

  energy without entropy =     -966.68837144  energy(sigma->0) =     -966.68837144


--------------------------------------------------------------------------------------------------------




--------------------------------------- Iteration      1(  13)  ---------------------------------------


    POTLOK:  cpu time      0.2309: real time      0.2339
    SETDIJ:  cpu time      0.0215: real time      0.0216
     EDDAV:  cpu time     21.8262: real time     21.9883
       DOS:  cpu time      0.0010: real time      0.0010
    CHARGE:  cpu time      0.2411: real time      0.2425
    MIXING:  cpu time      0.0173: real time      0.0175
    --------------------------------------------
      LOOP:  cpu time     22.3379: real time     22.5047

 eigenvalue-minimisations  :  5312
 total energy-change (2. order) : 0.1330977E-02  (-0.9699802E-03)
 number of electron     792.0002626 magnetization
 augmentation part      211.2297547 magnetization

 Broyden mixing:
  rms(total) = 0.20962E-01    rms(broyden)= 0.20960E-01
  rms(prec ) = 0.24694E-01
  weight for this iteration     100.00

 eigenvalues of (default mixing * dielectric matrix)
  average eigenvalue GAMMA=   1.2544
  2.5256  1.8051  1.8051  1.0219  0.8558  0.8558  0.6075  0.5581

 Free energy of the ion-electron system (eV)
  ---------------------------------------------------
  alpha Z        PSCENC =      3563.47650690
  Ewald energy   TEWEN  =    -48589.53846470
  -Hartree energ DENC   =    -18735.90453785
  -exchange      EXHF   =         0.00000000
  -V(xc)+E(xc)   XCENC  =      3312.61529300
  PAW double counting   =     89251.39162502   -89553.25060145
  entropy T*S    EENTRO =        -0.00000000
  eigenvalues    EBANDS =     -8871.87610297
  atomic energy  EATOM  =     68656.39924158
  Solvation  Ediel_sol  =         0.00000000
  ---------------------------------------------------
  free energy    TOTEN  =      -966.68704046 eV

  energy without entropy =     -966.68704046  energy(sigma->0) =     -966.68704046


--------------------------------------------------------------------------------------------------------




--------------------------------------- Iteration      1(  14)  ---------------------------------------


    POTLOK:  cpu time      0.2274: real time      0.2300
    SETDIJ:  cpu time      0.0272: real time      0.0273
     EDDAV:  cpu time     21.9521: real time     22.1073
       DOS:  cpu time      0.0011: real time      0.0011
    CHARGE:  cpu time      0.2369: real time      0.2383
    MIXING:  cpu time      0.0175: real time      0.0177
    --------------------------------------------
      LOOP:  cpu time     22.4622: real time     22.6216

 eigenvalue-minimisations  :  5344
 total energy-change (2. order) :-0.2240578E-03  (-0.1800320E-03)
 number of electron     792.0002626 magnetization
 augmentation part      211.2110759 magnetization

 Broyden mixing:
  rms(total) = 0.19439E-01    rms(broyden)= 0.19437E-01
  rms(prec ) = 0.22989E-01
  weight for this iteration     100.00

 eigenvalues of (default mixing * dielectric matrix)
  average eigenvalue GAMMA=   1.2752
  2.4934  2.4934  1.8288  0.9916  0.8838  0.8838  0.7722  0.5927  0.5371

 Free energy of the ion-electron system (eV)
  ---------------------------------------------------
  alpha Z        PSCENC =      3563.47650690
  Ewald energy   TEWEN  =    -48589.53846470
  -Hartree energ DENC   =    -18738.20094619
  -exchange      EXHF   =         0.00000000
  -V(xc)+E(xc)   XCENC  =      3312.73608023
  PAW double counting   =     89202.59756239   -89504.23653476
  entropy T*S    EENTRO =        -0.00000000
  eigenvalues    EBANDS =     -8869.92070998
  atomic energy  EATOM  =     68656.39924158
  Solvation  Ediel_sol  =         0.00000000
  ---------------------------------------------------
  free energy    TOTEN  =      -966.68726452 eV

  energy without entropy =     -966.68726452  energy(sigma->0) =     -966.68726452


--------------------------------------------------------------------------------------------------------




--------------------------------------- Iteration      1(  15)  ---------------------------------------


    POTLOK:  cpu time      0.2305: real time      0.2324
    SETDIJ:  cpu time      0.0178: real time      0.0179
     EDDAV:  cpu time     22.1229: real time     22.2800
       DOS:  cpu time      0.0007: real time      0.0007
    CHARGE:  cpu time      0.2362: real time      0.2375
    MIXING:  cpu time      0.0187: real time      0.0189
    --------------------------------------------
      LOOP:  cpu time     22.6268: real time     22.7873

 eigenvalue-minimisations  :  5344
 total energy-change (2. order) : 0.1817500E-03  (-0.2516373E-03)
 number of electron     792.0002626 magnetization
 augmentation part      211.2336394 magnetization

 Broyden mixing:
  rms(total) = 0.43587E-02    rms(broyden)= 0.43510E-02
  rms(prec ) = 0.52287E-02
  weight for this iteration     100.00

 eigenvalues of (default mixing * dielectric matrix)
  average eigenvalue GAMMA=   1.2546
  2.7827  2.5548  1.8469  1.0091  1.0091  0.8017  0.8017  0.6277  0.5679  0.5440

 Free energy of the ion-electron system (eV)
  ---------------------------------------------------
  alpha Z        PSCENC =      3563.47650690
  Ewald energy   TEWEN  =    -48589.53846470
  -Hartree energ DENC   =    -18739.10505385
  -exchange      EXHF   =         0.00000000
  -V(xc)+E(xc)   XCENC  =      3312.80525083
  PAW double counting   =     89192.26118468   -89493.77837193
  entropy T*S    EENTRO =        -0.00000000
  eigenvalues    EBANDS =     -8869.20737629
  atomic energy  EATOM  =     68656.39924158
  Solvation  Ediel_sol  =         0.00000000
  ---------------------------------------------------
  free energy    TOTEN  =      -966.68708277 eV

  energy without entropy =     -966.68708277  energy(sigma->0) =     -966.68708277


--------------------------------------------------------------------------------------------------------




--------------------------------------- Iteration      1(  16)  ---------------------------------------


    POTLOK:  cpu time      0.2367: real time      0.2388
    SETDIJ:  cpu time      0.0152: real time      0.0153
     EDDAV:  cpu time     21.9023: real time     22.0608
       DOS:  cpu time      0.0006: real time      0.0006
    CHARGE:  cpu time      0.2394: real time      0.2408
    MIXING:  cpu time      0.0199: real time      0.0201
    --------------------------------------------
      LOOP:  cpu time     22.4141: real time     22.5764

 eigenvalue-minimisations  :  5272
 total energy-change (2. order) :-0.3304210E-04  (-0.4663022E-04)
 number of electron     792.0002626 magnetization
 augmentation part      211.2423802 magnetization

 Broyden mixing:
  rms(total) = 0.58696E-02    rms(broyden)= 0.58672E-02
  rms(prec ) = 0.69483E-02
  weight for this iteration     100.00

 eigenvalues of (default mixing * dielectric matrix)
  average eigenvalue GAMMA=   1.2289
  2.8096  2.5250  1.6202  1.3363  0.8812  0.8812  0.9599  0.7982  0.5965  0.5965
  0.5137

 Free energy of the ion-electron system (eV)
  ---------------------------------------------------
  alpha Z        PSCENC =      3563.47650690
  Ewald energy   TEWEN  =    -48589.53846470
  -Hartree energ DENC   =    -18739.30420107
  -exchange      EXHF   =         0.00000000
  -V(xc)+E(xc)   XCENC  =      3312.82347335
  PAW double counting   =     89195.57087360   -89497.08173397
  entropy T*S    EENTRO =        -0.00000000
  eigenvalues    EBANDS =     -8869.03281151
  atomic energy  EATOM  =     68656.39924158
  Solvation  Ediel_sol  =         0.00000000
  ---------------------------------------------------
  free energy    TOTEN  =      -966.68711581 eV

  energy without entropy =     -966.68711581  energy(sigma->0) =     -966.68711581


--------------------------------------------------------------------------------------------------------




--------------------------------------- Iteration      1(  17)  ---------------------------------------


    POTLOK:  cpu time      0.2315: real time      0.2353
    SETDIJ:  cpu time      0.0142: real time      0.0143
     EDDAV:  cpu time     22.0116: real time     22.1683
       DOS:  cpu time      0.0009: real time      0.0009
    CHARGE:  cpu time      0.2426: real time      0.2441
    MIXING:  cpu time      0.0196: real time      0.0197
    --------------------------------------------
      LOOP:  cpu time     22.5205: real time     22.6827

 eigenvalue-minimisations  :  5344
 total energy-change (2. order) : 0.2467740E-04  (-0.2002207E-04)
 number of electron     792.0002626 magnetization
 augmentation part      211.2363620 magnetization

 Broyden mixing:
  rms(total) = 0.15075E-02    rms(broyden)= 0.15062E-02
  rms(prec ) = 0.17835E-02
  weight for this iteration     100.00

 eigenvalues of (default mixing * dielectric matrix)
  average eigenvalue GAMMA=   1.2150
  2.8628  2.3992  1.7395  1.4504  1.0204  0.8475  0.8475  0.8642  0.8642  0.5995
  0.5646  0.5199

 Free energy of the ion-electron system (eV)
  ---------------------------------------------------
  alpha Z        PSCENC =      3563.47650690
  Ewald energy   TEWEN  =    -48589.53846470
  -Hartree energ DENC   =    -18739.37751993
  -exchange      EXHF   =         0.00000000
  -V(xc)+E(xc)   XCENC  =      3312.82091387
  PAW double counting   =     89194.04076961   -89495.56043569
  entropy T*S    EENTRO =        -0.00000000
  eigenvalues    EBANDS =     -8868.94810279
  atomic energy  EATOM  =     68656.39924158
  Solvation  Ediel_sol  =         0.00000000
  ---------------------------------------------------
  free energy    TOTEN  =      -966.68709114 eV

  energy without entropy =     -966.68709114  energy(sigma->0) =     -966.68709114


--------------------------------------------------------------------------------------------------------




--------------------------------------- Iteration      1(  18)  ---------------------------------------


    POTLOK:  cpu time      0.2370: real time      0.2401
    SETDIJ:  cpu time      0.0144: real time      0.0145
     EDDAV:  cpu time     21.6379: real time     21.7934
       DOS:  cpu time      0.0007: real time      0.0007
    CHARGE:  cpu time      0.2369: real time      0.2384
    MIXING:  cpu time      0.0203: real time      0.0204
    --------------------------------------------
      LOOP:  cpu time     22.1472: real time     22.3075

 eigenvalue-minimisations  :  5272
 total energy-change (2. order) :-0.6225717E-05  (-0.1489936E-05)
 number of electron     792.0002626 magnetization
 augmentation part      211.2380270 magnetization

 Broyden mixing:
  rms(total) = 0.19949E-02    rms(broyden)= 0.19947E-02
  rms(prec ) = 0.23371E-02
  weight for this iteration     100.00

 eigenvalues of (default mixing * dielectric matrix)
  average eigenvalue GAMMA=   1.2367
  2.8967  2.3139  1.9482  1.9482  0.8944  0.8944  0.9735  0.9222  0.9222  0.6905
  0.5805  0.5805  0.5118

 Free energy of the ion-electron system (eV)
  ---------------------------------------------------
  alpha Z        PSCENC =      3563.47650690
  Ewald energy   TEWEN  =    -48589.53846470
  -Hartree energ DENC   =    -18739.28014217
  -exchange      EXHF   =         0.00000000
  -V(xc)+E(xc)   XCENC  =      3312.81489890
  PAW double counting   =     89196.88085023   -89498.41545431
[...]
      7.58456      3.79228      1.99678    -0.00001 -0.00033 -2.89462 ( -0.63484  6.00000)
      7.58456      7.58456      1.99678     0.00000  0.00029 -2.89462 ( -0.63484  6.00000)
      0.00000      1.89614      0.40437    -0.00000 -0.00027 -2.89472 ( -0.63483  6.00000)
      0.00000      5.68842      0.40437    -0.00001  0.00001 -2.89410 ( -0.63480  6.00000)
      0.00000      9.48070      0.40437    -0.00000  0.00024 -2.89470 ( -0.63483  6.00000)
      3.79228      1.89614      0.40437     0.00000 -0.00033 -2.89476 ( -0.63484  6.00000)
      3.79228      5.68842      0.40437    -0.00003  0.00001 -2.89467 ( -0.63481  6.00000)
      3.79228      9.48070      0.40437    -0.00001  0.00035 -2.89475 ( -0.63484  6.00000)
      7.58456      1.89614      0.40437     0.00000 -0.00032 -2.89476 ( -0.63484  6.00000)
      7.58456      5.68842      0.40437     0.00002 -0.00000 -2.89466 ( -0.63482  6.00000)
      7.58456      9.48070      0.40437     0.00000  0.00030 -2.89476 ( -0.63484  6.00000)
      1.89614      1.89614      2.80551    -0.00033 -0.00001 -2.89475 ( -0.63485  6.00000)
      1.89614      5.68842      2.80551    -0.00024 -0.00000 -2.89471 ( -0.63483  6.00000)
      1.89614      9.48070      2.80551    -0.00031  0.00001 -2.89473 ( -0.63484  6.00000)
      5.68842      1.89614      2.80551     0.00002  0.00003 -2.89468 ( -0.63482  6.00000)
      5.68842      5.68842      2.80551     0.00003  0.00001 -2.89412 ( -0.63480  6.00000)
      5.68842      9.48070      2.80551     0.00001 -0.00002 -2.89467 ( -0.63481  6.00000)
      9.48070      1.89614      2.80551     0.00033  0.00001 -2.89474 ( -0.63484  6.00000)
      9.48070      5.68842      2.80551     0.00027 -0.00000 -2.89472 ( -0.63483  6.00000)
      9.48070      9.48070      2.80551     0.00033 -0.00001 -2.89477 ( -0.63484  6.00000)
 -----------------------------------------------------------------------------------------
    total drift (improves with k-points):   0.00004  0.00006 -0.07396




--------------------------------------------------------------------------------------------------------




 MACROSCOPIC STATIC DIELECTRIC TENSOR (including local field effects in DFT)
 ------------------------------------------------------
           6.958209    -0.000005    -0.000004
          -0.000000     6.958184    -0.000005
          -0.000001    -0.000004     6.372343
 ------------------------------------------------------



--------------------------------------------------------------------------------------------------------




--------------------------------------------------------------------------------------------------------




 MACROSCOPIC STATIC DIELECTRIC TENSOR (including local field effects in DFT)
 ------------------------------------------------------
           6.958209    -0.000005    -0.000004
          -0.000000     6.958184    -0.000005
          -0.000001    -0.000004     6.372343
 ------------------------------------------------------


 PIEZOELECTRIC TENSOR (including local field effects)  for field in x, y, z        (e  Angst)
          XX          YY          ZZ          XY          YZ          ZX
  --------------------------------------------------------------------------------
  x     0.00027     0.00041     0.00018    -0.00017    -0.00001     0.01332
  y     0.00007     0.00008    -0.00008     0.00013     0.01319    -0.00003
  z    -0.00622    -0.00611     0.01590    -0.00004    -0.00011    -0.00003

 PIEZOELECTRIC TENSOR (including local field effects)  for field in x, y, z        (C/m^2)
          XX          YY          ZZ          XY          YZ          ZX
  --------------------------------------------------------------------------------
  x     0.00000     0.00001     0.00000    -0.00000    -0.00000     0.00017
  y     0.00000     0.00000    -0.00000     0.00000     0.00017    -0.00000
  z    -0.00008    -0.00008     0.00020    -0.00000    -0.00000    -0.00000

 BORN EFFECTIVE CHARGES (including local field effects) (in |e|, cummulative output)
 ---------------------------------------------------------------------------------
 ion    1
    1     6.66106     0.00006     0.00023
    2     0.00005     6.66088    -0.00025
    3     0.00015    -0.00018     5.78819
 ion    2
    1     6.66084    -0.00001    -0.00019
    2     0.00002     6.65956    -0.00004
    3    -0.00027    -0.00002     5.78748
 ion    3
    1     6.66107    -0.00005     0.00023
    2    -0.00011     6.66089     0.00030
    3     0.00017     0.00015     5.78817
 ion    4
    1     6.65972    -0.00003     0.00000
    2    -0.00002     6.66066     0.00010
    3    -0.00000     0.00022     5.78749
 ion    5
    1     6.65676     0.00004    -0.00001
    2     0.00003     6.65657    -0.00005
    3    -0.00003    -0.00004     5.78743
 ion    6
    1     6.65970    -0.00001    -0.00003
    2     0.00003     6.66063    -0.00013
    3    -0.00001    -0.00025     5.78749
 ion    7
    1     6.66101    -0.00006    -0.00033
    2    -0.00010     6.66087    -0.00027
    3    -0.00018    -0.00020     5.78818
 ion    8
    1     6.66079    -0.00003     0.00009
    2     0.00005     6.65955    -0.00002
    3     0.00024    -0.00001     5.78752
 ion    9
    1     6.66110     0.00006    -0.00028
    2     0.00011     6.66087     0.00032
    3    -0.00017     0.00018     5.78818
 ion   10
    1     6.66068     0.00002     0.00015
    2    -0.00002     6.65966     0.00003
    3     0.00028    -0.00003     5.78748
 ion   11
    1     6.66092    -0.00008    -0.00025
    2    -0.00005     6.66102    -0.00029
    3    -0.00016    -0.00019     5.78817
 ion   12
    1     6.66093     0.00007    -0.00026
    2     0.00005     6.66105     0.00028
    3    -0.00019     0.00018     5.78818
 ion   13
    1     6.65662     0.00000    -0.00003
    2     0.00001     6.65667    -0.00002
    3    -0.00003    -0.00002     5.78743
 ion   14
    1     6.65957     0.00001    -0.00003
    2    -0.00003     6.66076     0.00010
    3     0.00001     0.00022     5.78747
 ion   15
    1     6.65956    -0.00004    -0.00001
    2     0.00002     6.66080    -0.00014
    3     0.00002    -0.00025     5.78748
 ion   16
    1     6.66064    -0.00002    -0.00010
    2    -0.00001     6.65967     0.00003
    3    -0.00025    -0.00000     5.78751
 ion   17
    1     6.66088     0.00007     0.00030
    2     0.00006     6.66103    -0.00032
    3     0.00017    -0.00020     5.78817
 ion   18
    1     6.66092    -0.00009     0.00027
    2    -0.00007     6.66100     0.00026
    3     0.00015     0.00017     5.78817
 ion   19
    1     6.65676    -0.00002     0.00000
    2    -0.00000     6.65655    -0.00004
    3     0.00000     0.00004     5.78742
 ion   20
    1     6.65969    -0.00002     0.00003
    2    -0.00002     6.66068    -0.00010
    3     0.00001    -0.00024     5.78746
 ion   21
    1     6.65969    -0.00001     0.00005
    2    -0.00001     6.66065     0.00013
    3    -0.00001     0.00025     5.78748
 ion   22
    1     6.66079    -0.00002     0.00011
    2    -0.00001     6.65955    -0.00001
    3     0.00022    -0.00001     5.78751
 ion   23
    1     6.66102     0.00006    -0.00028
    2     0.00005     6.66086     0.00028
    3    -0.00019     0.00017     5.78818
 ion   24
    1     6.66103    -0.00010    -0.00026
    2    -0.00010     6.66090    -0.00029
    3    -0.00020    -0.00021     5.78817
 ion   25
    1     6.66082    -0.00003    -0.00013
    2    -0.00002     6.65955    -0.00003
    3    -0.00023     0.00001     5.78750
 ion   26
    1     6.66101    -0.00009     0.00026
    2    -0.00010     6.66085     0.00028
    3     0.00015     0.00018     5.78817
 ion   27
    1     6.66105     0.00004     0.00029
    2     0.00003     6.66089    -0.00030
    3     0.00018    -0.00017     5.78818
 ion   28
    1     6.65962    -0.00002    -0.00002
    2     0.00003     6.66077    -0.00014
    3     0.00000    -0.00023     5.78748
 ion   29
    1     6.65667     0.00000    -0.00003
    2    -0.00002     6.65665     0.00003
    3    -0.00004    -0.00000     5.78743
 ion   30
    1     6.65962     0.00000    -0.00002
    2     0.00001     6.66079     0.00008
    3    -0.00001     0.00023     5.78750
 ion   31
    1     6.66092    -0.00007     0.00024
    2    -0.00008     6.66099     0.00025
    3     0.00017     0.00019     5.78819
 ion   32
    1     6.66069     0.00002    -0.00010
    2     0.00000     6.65962     0.00001
    3    -0.00025     0.00002     5.78750
 ion   33
    1     6.66094     0.00009     0.00028
    2     0.00009     6.66096    -0.00031
    3     0.00018    -0.00019     5.78817
 ion   34
    1     6.66096     0.00009    -0.00028
    2     0.00007     6.66100     0.00027
    3    -0.00020     0.00020     5.78819
 ion   35
    1     6.66069    -0.00002     0.00013
    2     0.00000     6.65964     0.00001
    3     0.00024     0.00002     5.78748
 ion   36
    1     6.66100    -0.00010    -0.00028
    2    -0.00008     6.66095    -0.00029
    3    -0.00020    -0.00018     5.78818
 ion   37
    1    -5.53793    -0.00003     0.00004
    2    -0.00002    -1.12344    -0.00003
    3     0.00001    -0.00005    -2.89383
 ion   38
    1    -5.53766    -0.00000     0.00005
    2    -0.00001    -1.12220     0.00001
    3     0.00001     0.00002    -2.89323
 ion   39
    1    -5.53801    -0.00000     0.00004
    2     0.00000    -1.12343     0.00005
    3    -0.00001     0.00003    -2.89385
 ion   40
    1    -5.53684     0.00017    -0.00005
    2     0.00009    -1.12349    -0.00000
    3    -0.00028    -0.00000    -2.89396
 ion   41
    1    -5.53672    -0.00003    -0.00005
    2    -0.00003    -1.12232    -0.00001
    3    -0.00024    -0.00001    -2.89385
 ion   42
    1    -5.53681    -0.00014    -0.00004
    2    -0.00006    -1.12346     0.00001
    3    -0.00029     0.00001    -2.89392
 ion   43
    1    -5.53688    -0.00015     0.00009
    2    -0.00005    -1.12347    -0.00002
    3     0.00031    -0.00002    -2.89393
 ion   44
    1    -5.53671     0.00001     0.00007
    2    -0.00003    -1.12232    -0.00002
    3     0.00029    -0.00001    -2.89384
 ion   45
    1    -5.53694     0.00012     0.00007
    2     0.00004    -1.12346     0.00002
    3     0.00031     0.00001    -2.89393
 ion   46
    1    -1.12347    -0.00007     0.00001
    2    -0.00012    -5.53680     0.00005
    3     0.00000     0.00032    -2.89394
 ion   47
    1    -1.12346     0.00001     0.00001
    2     0.00003    -5.53791     0.00004
    3    -0.00004     0.00002    -2.89386
 ion   48
    1    -1.12349     0.00006    -0.00004
    2     0.00015    -5.53681    -0.00012
    3    -0.00001    -0.00028    -2.89393
 ion   49
    1    -1.12233    -0.00001    -0.00001
    2    -0.00003    -5.53666     0.00007
    3    -0.00001     0.00029    -2.89387
 ion   50
    1    -1.12219     0.00002     0.00000
    2     0.00001    -5.53758     0.00005
    3     0.00000     0.00002    -2.89324
 ion   51
    1    -1.12234     0.00002     0.00001
    2    -0.00002    -5.53662    -0.00002
    3    -0.00000    -0.00025    -2.89387
 ion   52
    1    -1.12346     0.00008     0.00002
    2     0.00014    -5.53684     0.00009
    3    -0.00000     0.00033    -2.89396
 ion   53
    1    -1.12345    -0.00000     0.00003
    2    -0.00006    -5.53788     0.00002
    3     0.00005     0.00000    -2.89385
 ion   54
    1    -1.12346    -0.00004    -0.00000
    2    -0.00014    -5.53677    -0.00012
    3    -0.00002    -0.00030    -2.89393
 ion   55
    1    -1.12346     0.00003    -0.00001
    2     0.00005    -5.53778    -0.00003
    3     0.00002     0.00001    -2.89398
 ion   56
    1    -1.12348     0.00006    -0.00002
    2     0.00010    -5.53674     0.00008
    3    -0.00001     0.00031    -2.89406
 ion   57
    1    -1.12349    -0.00009     0.00002
    2    -0.00012    -5.53680    -0.00007
    3     0.00001    -0.00029    -2.89406
 ion   58
    1    -1.12218     0.00001     0.00000
    2     0.00001    -5.53748     0.00001
    3     0.00002     0.00000    -2.89341
 ion   59
    1    -1.12233     0.00003     0.00001
    2     0.00003    -5.53653     0.00011
    3    -0.00000     0.00031    -2.89402
 ion   60
    1    -1.12235    -0.00002    -0.00003
    2    -0.00002    -5.53660    -0.00000
    3    -0.00000    -0.00024    -2.89402
 ion   61
    1    -1.12345    -0.00001    -0.00003
    2    -0.00001    -5.53781    -0.00006
    3    -0.00003     0.00000    -2.89399
 ion   62
    1    -1.12347    -0.00006    -0.00002
    2    -0.00009    -5.53673     0.00013
    3     0.00000     0.00036    -2.89405
 ion   63
    1    -1.12347     0.00010    -0.00002
    2     0.00014    -5.53673    -0.00008
    3    -0.00001    -0.00032    -2.89407
 ion   64
    1    -5.53748    -0.00000    -0.00004
    2     0.00001    -1.12219     0.00001
    3    -0.00002    -0.00002    -2.89342
 ion   65
    1    -5.53779     0.00001    -0.00003
    2    -0.00001    -1.12343    -0.00003
    3     0.00000    -0.00004    -2.89398
 ion   66
    1    -5.53782    -0.00000    -0.00002
    2    -0.00000    -1.12344     0.00002
    3     0.00004     0.00002    -2.89398
 ion   67
    1    -5.53655    -0.00001     0.00007
    2    -0.00000    -1.12232     0.00000
    3     0.00027    -0.00002    -2.89405
 ion   68
    1    -5.53670    -0.00015     0.00008
    2    -0.00006    -1.12345    -0.00001
    3     0.00030    -0.00000    -2.89407
 ion   69
    1    -5.53667     0.00016     0.00006
    2     0.00007    -1.12346     0.00002
    3     0.00031     0.00001    -2.89405
 ion   70
    1    -5.53655     0.00001    -0.00005
    2     0.00000    -1.12232     0.00000
    3    -0.00025     0.00001    -2.89403
 ion   71
    1    -5.53671     0.00014    -0.00009
    2     0.00007    -1.12345     0.00001
    3    -0.00031    -0.00001    -2.89405
 ion   72
    1    -5.53674    -0.00012    -0.00006
    2    -0.00007    -1.12348     0.00000
    3    -0.00032    -0.00001    -2.89406
 ion   73
    1    -5.53674     0.00002     0.00005
    2     0.00000    -1.12231    -0.00001
    3     0.00028     0.00001    -2.89385
 ion   74
    1    -5.53685     0.00014     0.00005
    2     0.00009    -1.12347     0.00002
    3     0.00031     0.00001    -2.89392
 ion   75
    1    -5.53683    -0.00014     0.00005
    2    -0.00007    -1.12348    -0.00003
    3     0.00032    -0.00001    -2.89392
 ion   76
    1    -5.53761     0.00001     0.00002
    2     0.00003    -1.12219     0.00001
    3     0.00000     0.00000    -2.89325
 ion   77
    1    -5.53793    -0.00000     0.00003
    2    -0.00002    -1.12343     0.00004
    3     0.00001     0.00005    -2.89382
 ion   78
    1    -5.53792     0.00003     0.00001
    2     0.00004    -1.12344    -0.00002
    3     0.00001    -0.00005    -2.89384
 ion   79
    1    -5.53666     0.00001    -0.00007
    2     0.00001    -1.12232    -0.00002
    3    -0.00030    -0.00001    -2.89385
 ion   80
    1    -5.53679    -0.00012    -0.00009
    2    -0.00002    -1.12348     0.00002
    3    -0.00029     0.00002    -2.89392
 ion   81
    1    -5.53685     0.00015    -0.00011
    2     0.00006    -1.12347    -0.00000
    3    -0.00029     0.00000    -2.89393
 ion   82
    1    -1.12220    -0.00001     0.00001
    2    -0.00001    -5.53757     0.00005
    3     0.00001    -0.00001    -2.89326
 ion   83
    1    -1.12234     0.00003    -0.00002
    2    -0.00003    -5.53660    -0.00007
    3    -0.00000    -0.00028    -2.89385
 ion   84
    1    -1.12232    -0.00000    -0.00001
    2     0.00003    -5.53666     0.00003
    3     0.00001     0.00028    -2.89386
 ion   85
    1    -1.12346     0.00000     0.00003
    2    -0.00001    -5.53785     0.00002
    3     0.00004    -0.00000    -2.89386
 ion   86
    1    -1.12346    -0.00007     0.00001
    2    -0.00011    -5.53676    -0.00007
    3     0.00001    -0.00031    -2.89394
 ion   87
    1    -1.12348     0.00006     0.00001
    2     0.00009    -5.53681     0.00007
    3     0.00002     0.00031    -2.89394
 ion   88
    1    -1.12346    -0.00001    -0.00001
    2     0.00001    -5.53789     0.00002
    3    -0.00003     0.00000    -2.89385
 ion   89
    1    -1.12347     0.00008    -0.00002
    2     0.00017    -5.53676    -0.00012
    3    -0.00001    -0.00033    -2.89394
 ion   90
    1    -1.12348    -0.00006    -0.00000
    2    -0.00010    -5.53680     0.00011
    3     0.00000     0.00029    -2.89394
 ion   91
    1    -1.12233     0.00000     0.00003
    2     0.00001    -5.53660    -0.00000
    3    -0.00000    -0.00027    -2.89403
 ion   92
    1    -1.12220     0.00001    -0.00001
    2     0.00001    -5.53747    -0.00004
    3    -0.00001     0.00001    -2.89342
 ion   93
    1    -1.12235     0.00001     0.00001
    2    -0.00001    -5.53655     0.00006
    3    -0.00000     0.00024    -2.89401
 ion   94
    1    -1.12346     0.00007     0.00001
    2     0.00012    -5.53676    -0.00010
    3     0.00000    -0.00033    -2.89407
 ion   95
    1    -1.12345     0.00002     0.00000
    2     0.00001    -5.53780    -0.00001
    3    -0.00003     0.00001    -2.89399
 ion   96
    1    -1.12347    -0.00005    -0.00000
    2    -0.00011    -5.53670     0.00011
    3    -0.00001     0.00035    -2.89407
 ion   97
    1    -1.12347    -0.00006     0.00003
    2    -0.00011    -5.53675    -0.00009
    3     0.00000    -0.00032    -2.89407
 ion   98
    1    -1.12345     0.00001     0.00000
    2    -0.00002    -5.53777    -0.00002
    3     0.00002    -0.00001    -2.89398
 ion   99
    1    -1.12348     0.00009     0.00004
    2     0.00013    -5.53668     0.00010
    3     0.00000     0.00030    -2.89407
 ion  100
    1    -5.53677    -0.00014    -0.00008
    2    -0.00007    -1.12345    -0.00001
    3    -0.00033    -0.00001    -2.89406
 ion  101
    1    -5.53663     0.00003    -0.00003
    2    -0.00000    -1.12230     0.00000
    3    -0.00024    -0.00001    -2.89403
 ion  102
    1    -5.53677     0.00009    -0.00002
    2     0.00006    -1.12345     0.00001
    3    -0.00031     0.00000    -2.89405
 ion  103
    1    -5.53787    -0.00002     0.00002
    2     0.00000    -1.12343     0.00003
    3     0.00002     0.00003    -2.89399
 ion  104
    1    -5.53747    -0.00001    -0.00002
    2     0.00000    -1.12220     0.00001
    3     0.00003     0.00001    -2.89343
 ion  105
    1    -5.53785     0.00001    -0.00001
    2    -0.00001    -1.12340    -0.00002
    3     0.00001    -0.00002    -2.89399
 ion  106
    1    -5.53671     0.00016     0.00011
    2     0.00006    -1.12345     0.00000
    3     0.00033     0.00001    -2.89406
 ion  107
    1    -5.53657    -0.00002     0.00010
    2     0.00001    -1.12231     0.00001
    3     0.00027    -0.00000    -2.89404
 ion  108
    1    -5.53676    -0.00013     0.00006
    2    -0.00005    -1.12346    -0.00002
    3     0.00033    -0.00001    -2.89408


--------------------------------------------------------------------------------------------------------


     LOOP+:  cpu time   2798.0717: real time   2818.3163
    4ORBIT:  cpu time      0.0000: real time      0.0000

 total amount of memory used by VASP MPI-rank0   266725. kBytes
=======================================================================

   base      :      30000. kBytes
   nonlr-proj:      19556. kBytes
   fftplans  :      10927. kBytes
   grid      :      23181. kBytes
   one-center:       1679. kBytes
   wavefun   :     181382. kBytes



 General timing and accounting informations for this job:
 ========================================================

                  Total CPU time used (sec):     2803.347
                            User time (sec):     2732.375
                          System time (sec):       70.972
                         Elapsed time (sec):     2824.255

                   Maximum memory used (kb):     1071748.
                   Average memory used (kb):          N/A

                          Minor page faults:      1236788
                          Major page faults:         1172
                 Voluntary context switches:         4060
