 vasp.6.3.0 20Jan22 (build Mar 29 2022 16:24:06) complex

 executed on             Bridges2 date 2023.01.10  17:20:13
 running on   32 total cores
 distrk:  each k-point on    4 cores,    8 groups
 distr:  one band on NCORE=   1 cores,    4 groups


--------------------------------------------------------------------------------------------------------


 INCAR:
   ICHARG = 2
   LWAVE = .FALSE.
   LCHARG = .FALSE.
   LVTOT = .FALSE.
   NCORE = 1
   KPAR = 8
   EDIFF = 1E-7
   NELM = 80
   PREC = Normal
   LREAL = Auto
   NELMIN = 4
   ENCUT = 400.0 eV
   ISPIN = 1
   ISMEAR = 0
   SIGMA = 0.10
   NSW = 0
   LEPSILON = .TRUE.
   LPEAD = .TRUE.
   ISYM = 0

 POTCAR:    PAW_PBE Ti_pv 07Sep2000
 POTCAR:    PAW_PBE O 08Apr2002
 -----------------------------------------------------------------------------
|                                                                             |
|           W    W    AA    RRRRR   N    N  II  N    N   GGGG   !!!           |
|           W    W   A  A   R    R  NN   N  II  NN   N  G    G  !!!           |
|           W    W  A    A  R    R  N N  N  II  N N  N  G       !!!           |
|           W WW W  AAAAAA  RRRRR   N  N N  II  N  N N  G  GGG   !            |
|           WW  WW  A    A  R   R   N   NN  II  N   NN  G    G                |
|           W    W  A    A  R    R  N    N  II  N    N   GGGG   !!!           |
|                                                                             |
|     For optimal performance we recommend to set                             |
|       NCORE = 2 up to number-of-cores-per-socket                            |
|     NCORE specifies how many cores store one orbital (NPAR=cpu/NCORE).      |
|     This setting can greatly improve the performance of VASP for DFT.       |
|     The default, NCORE=1 might be grossly inefficient on modern             |
|     multi-core architectures or massively parallel machines. Do your        |
|     own testing! More info at https://www.vasp.at/wiki/index.php/NCORE      |
|     Unfortunately you need to use the default for GW and RPA                |
|     calculations (for HF NCORE is supported but not extensively tested      |
|     yet).                                                                   |
|                                                                             |
 -----------------------------------------------------------------------------

 POTCAR:    PAW_PBE Ti_pv 07Sep2000
   VRHFIN =Ti: d3 s1
   LEXCH  = PE
   EATOM  =  1042.5995 eV,   76.6289 Ry

   TITEL  = PAW_PBE Ti_pv 07Sep2000
   LULTRA =        F    use ultrasoft PP ?
   IUNSCR =        1    unscreen: 0-lin 1-nonlin 2-no
   RPACOR =    2.200    partial core radius
   POMASS =   47.880; ZVAL   =   10.000    mass and valenz
   RCORE  =    2.500    outmost cutoff radius
   RWIGS  =    2.500; RWIGS  =    1.323    wigner-seitz radius (au A)
   ENMAX  =  222.335; ENMIN  =  166.751 eV
   RCLOC  =    1.701    cutoff for local pot
   LCOR   =        T    correct aug charges
   LPAW   =        T    paw PP
   EAUG   =  482.848
   DEXC   =    0.000
   RMAX   =    2.564    core radius for proj-oper
   RAUG   =    1.300    factor for augmentation sphere
   RDEP   =    2.538    radius for radial grids
   RDEPT  =    1.952    core radius for aug-charge

   Atomic configuration
    8 entries
     n  l   j            E        occ.
     1  0  0.50     -4865.3608   2.0000
     2  0  0.50      -533.1368   2.0000
     2  1  1.50      -440.5031   6.0000
     3  0  0.50       -59.3186   2.0000
     3  1  1.50       -35.7012   6.0000
     3  2  2.50        -1.9157   3.0000
     4  0  0.50        -3.7291   1.0000
     4  3  2.50        -1.3606   0.0000
   Description
     l       E           TYP  RCUT    TYP  RCUT
     1    -35.7012140     23  2.300
     1     -1.3605826     23  2.300
     2     -1.9156996     23  2.500
     2     -0.4063033     23  2.500
     0     -3.7290856     23  2.500
     0     20.4087390     23  2.500
  local pseudopotential read in
  partial core-charges read in
  partial kinetic energy density read in
  atomic valenz-charges read in
  non local Contribution for L=           1  read in
    real space projection operators read in
  non local Contribution for L=           1  read in
    real space projection operators read in
  non local Contribution for L=           2  read in
    real space projection operators read in
  non local Contribution for L=           2  read in
    real space projection operators read in
  non local Contribution for L=           0  read in
    real space projection operators read in
  non local Contribution for L=           0  read in
    real space projection operators read in
    PAW grid and wavefunctions read in

   number of l-projection  operators is LMAX  =           6
   number of lm-projection operators is LMMAX =          18

 POTCAR:    PAW_PBE O 08Apr2002
   VRHFIN =O: s2p4
   LEXCH  = PE
   EATOM  =   432.3788 eV,   31.7789 Ry

   TITEL  = PAW_PBE O 08Apr2002
   LULTRA =        F    use ultrasoft PP ?
   IUNSCR =        1    unscreen: 0-lin 1-nonlin 2-no
   RPACOR =    1.200    partial core radius
   POMASS =   16.000; ZVAL   =    6.000    mass and valenz
   RCORE  =    1.520    outmost cutoff radius
   RWIGS  =    1.550; RWIGS  =    0.820    wigner-seitz radius (au A)
   ENMAX  =  400.000; ENMIN  =  300.000 eV
   ICORE  =        2    local potential
   LCOR   =        T    correct aug charges
   LPAW   =        T    paw PP
   EAUG   =  605.392
   DEXC   =    0.000
   RMAX   =    1.553    core radius for proj-oper
   RAUG   =    1.300    factor for augmentation sphere
   RDEP   =    1.550    radius for radial grids
   RDEPT  =    1.329    core radius for aug-charge

   Atomic configuration
    4 entries
     n  l   j            E        occ.
     1  0  0.50      -514.6923   2.0000
     2  0  0.50       -23.9615   2.0000
     2  1  0.50        -9.0305   4.0000
     3  2  1.50        -9.5241   0.0000
   Description
     l       E           TYP  RCUT    TYP  RCUT
     0    -23.9615318     23  1.200
     0     -9.5240782     23  1.200
     1     -9.0304911     23  1.520
     1      8.1634956     23  1.520
     2     -9.5240782      7  1.500
  local pseudopotential read in
  partial core-charges read in
  partial kinetic energy density read in
  kinetic energy density of atom read in
  atomic valenz-charges read in
  non local Contribution for L=           0  read in
    real space projection operators read in
  non local Contribution for L=           0  read in
    real space projection operators read in
  non local Contribution for L=           1  read in
    real space projection operators read in
  non local Contribution for L=           1  read in
    real space projection operators read in
    PAW grid and wavefunctions read in

   number of l-projection  operators is LMAX  =           4
   number of lm-projection operators is LMMAX =           8

 Optimization of the real space projectors (new method)

 maximal supplied QI-value         = 15.12
 optimisation between [QCUT,QGAM] = [ 10.13, 20.41] = [ 28.73,116.64] Ry
 Optimized for a Real-space Cutoff    1.51 Angstroem

   l    n(q)    QCUT    max X(q) W(low)/X(q) W(high)/X(q)  e(spline)
   1      9    10.129     4.216    0.12E-04    0.72E-04    0.60E-07
   1      9    10.129     5.422    0.84E-04    0.21E-03    0.15E-06
   2      8    10.129    72.084    0.33E-03    0.35E-04    0.17E-06
   2      8    10.129    65.965    0.33E-03    0.37E-04    0.17E-06
   0      9    10.129    41.531    0.17E-03    0.19E-03    0.81E-07
   0      9    10.129    16.290    0.12E-03    0.14E-03    0.64E-07
 Optimization of the real space projectors (new method)

 maximal supplied QI-value         = 24.76
 optimisation between [QCUT,QGAM] = [ 10.15, 20.30] = [ 28.85,115.39] Ry
 Optimized for a Real-space Cutoff    1.38 Angstroem

   l    n(q)    QCUT    max X(q) W(low)/X(q) W(high)/X(q)  e(spline)
   0      8    10.150    20.381    0.22E-03    0.32E-03    0.29E-06
   0      8    10.150    15.268    0.23E-03    0.35E-03    0.30E-06
   1      8    10.150     5.964    0.46E-03    0.53E-03    0.21E-06
   1      8    10.150     5.382    0.38E-03    0.45E-03    0.19E-06
  PAW_PBE Ti_pv 07Sep2000               :
 energy of atom  1       EATOM=-1042.5995
 kinetic energy error for atom=    0.0037 (will be added to EATOM!!)
  PAW_PBE O 08Apr2002                   :
 energy of atom  2       EATOM= -432.3788
 kinetic energy error for atom=    0.1156 (will be added to EATOM!!)


 POSCAR: Ti4 O8
  positions in cartesian coordinates
  No initial velocities read in
 exchange correlation table for  LEXCH =        8
   RHO(1)=    0.500       N(1)  =     2000
   RHO(2)=  100.500       N(2)  =     4000



--------------------------------------------------------------------------------------------------------


 ion  position               nearest neighbor table
   1  0.167  0.167  0.500-  56 1.94  55 1.94  40 1.94  37 1.94 100 2.00  46 2.00  31 3.06  28 3.06
                            11 3.06  10 3.06
   2  0.167  0.500  0.500-  56 1.94  41 1.94  38 1.94  57 1.94 101 2.00  47 2.00  11 3.06  32 3.06
                            29 3.06  12 3.06
   3  0.167  0.833  0.500-  57 1.94  42 1.94  39 1.94  55 1.94 102 2.00  48 2.00  12 3.06  33 3.06
                            30 3.06  10 3.06
   4  0.500  0.167  0.500-  40 1.94  59 1.94  58 1.94  43 1.94 103 2.00  49 2.00  31 3.06  14 3.06
                            13 3.06  34 3.06
   5  0.491  0.500  0.500-  41 1.84  59 1.94  60 1.94 104 2.00  50 2.00  44 2.04  32 3.00  14 3.06
                            15 3.06  35 3.12
   6  0.500  0.833  0.500-  60 1.94  42 1.94  58 1.94  45 1.94 105 2.00  51 2.00  15 3.06  33 3.06
                            13 3.06  36 3.06
   7  0.833  0.167  0.500-  43 1.94  62 1.94  61 1.94  37 1.94 106 2.00  52 2.00  34 3.06  17 3.06
                            16 3.06  28 3.06
   8  0.833  0.500  0.500-  44 1.94  62 1.94  63 1.94  38 1.94 107 2.00  53 2.00  35 3.06  17 3.06
                            29 3.06  18 3.06
   9  0.833  0.833  0.500-  63 1.94  45 1.94  61 1.94  39 1.94 108 2.00  54 2.00  36 3.06  18 3.06
                            30 3.06  16 3.06
  10  0.167  0.000  0.750-  67 1.94  64 1.94  46 1.94  48 1.94  73 2.00  55 2.00  22 3.06  19 3.06
                             1 3.06   3 3.06
  11  0.167  0.333  0.750-  47 1.94  46 1.94  68 1.94  65 1.94  74 2.00  56 2.00   2 3.06  23 3.06
                            20 3.06   1 3.06
  12  0.167  0.667  0.750-  48 1.94  69 1.94  66 1.94  47 1.94  75 2.00  57 2.00   3 3.06  24 3.06
                            21 3.06   2 3.06
  13  0.500  0.000  0.750-  67 1.94  49 1.94  51 1.94  70 1.94  76 2.00  58 2.00  22 3.06   4 3.06
                            25 3.06   6 3.06
  14  0.500  0.333  0.750-  50 1.94  68 1.94  49 1.94  71 1.94  77 2.00  59 2.00  23 3.06   4 3.06
                            26 3.06   5 3.06
  15  0.500  0.667  0.750-  51 1.94  69 1.94  50 1.94  72 1.94  78 2.00  60 2.00   6 3.06  24 3.06
                            27 3.06   5 3.06
  16  0.833  0.000  0.750-  70 1.94  52 1.94  64 1.94  54 1.94  79 2.00  61 2.00  25 3.06   7 3.06
                            19 3.06   9 3.06
  17  0.833  0.333  0.750-  71 1.94  53 1.94  52 1.94  65 1.94  80 2.00  62 2.00  26 3.06   8 3.06
                             7 3.06  20 3.06
  18  0.833  0.667  0.750-  54 1.94  72 1.94  66 1.94  53 1.94  81 2.00  63 2.00  27 3.06   9 3.06
                            21 3.06   8 3.06
  19  0.000  0.000  0.000-  73 1.94  91 1.94  79 1.94  93 1.94  82 2.00  64 2.00  10 3.06  28 3.06
                            16 3.06  30 3.06
  20  0.000  0.333  0.000-  92 1.94  74 1.94  91 1.94  80 1.94  83 2.00  65 2.00  29 3.06  11 3.06
                            28 3.06  17 3.06
  21  0.000  0.667  0.000-  93 1.94  75 1.94  81 1.94  92 1.94  84 2.00  66 2.00  30 3.06  12 3.06
                            18 3.06  29 3.06
  22  0.333  0.000  0.000-  76 1.94  73 1.94  94 1.94  96 1.94  85 2.00  67 2.00  13 3.06  10 3.06
                            31 3.06  33 3.06
  23  0.333  0.333  0.000-  77 1.94  95 1.94  74 1.94  94 1.94  86 2.00  68 2.00  14 3.06  32 3.06
                            11 3.06  31 3.06
  24  0.333  0.667  0.000-  96 1.94  78 1.94  75 1.94  95 1.94  87 2.00  69 2.00  33 3.06  15 3.06
                            12 3.06  32 3.06
  25  0.667  0.000  0.000-  79 1.94  97 1.94  76 1.94  99 1.94  88 2.00  70 2.00  16 3.06  34 3.06
                            13 3.06  36 3.06
  26  0.667  0.333  0.000-  80 1.94  98 1.94  97 1.94  77 1.94  89 2.00  71 2.00  17 3.06  35 3.06
                            34 3.06  14 3.06
  27  0.667  0.667  0.000-  81 1.94  99 1.94  78 1.94  98 1.94  90 2.00  72 2.00  18 3.06  36 3.06
                            15 3.06  35 3.06
  28  0.000  0.167  0.250-  83 1.94  82 1.94 100 1.94 106 1.94  37 2.00  91 2.00   1 3.06  20 3.06
                            19 3.06   7 3.06
  29  0.000  0.500  0.250-  83 1.94 101 1.94  84 1.94 107 1.94  38 2.00  92 2.00  20 3.06   2 3.06
                             8 3.06  21 3.06
  30  0.000  0.833  0.250-  84 1.94 102 1.94  82 1.94 108 1.94  39 2.00  93 2.00  21 3.06   3 3.06
                             9 3.06  19 3.06
  31  0.333  0.167  0.250- 103 1.94  86 1.94  85 1.94 100 1.94  40 2.00  94 2.00   4 3.06   1 3.06
                            23 3.06  22 3.06
  32  0.333  0.500  0.250-  86 1.94 104 1.94 101 1.94  87 1.94  41 2.00  95 2.00   5 3.00  23 3.06
                             2 3.06  24 3.06
  33  0.333  0.833  0.250-  87 1.94 105 1.94 102 1.94  85 1.94  42 2.00  96 2.00  24 3.06   6 3.06
                             3 3.06  22 3.06
  34  0.667  0.167  0.250- 106 1.94  89 1.94  88 1.94 103 1.94  43 2.00  97 2.00   7 3.06  26 3.06
                            25 3.06   4 3.06
  35  0.667  0.500  0.250- 107 1.94  89 1.94  90 1.94 104 1.94  44 2.00  98 2.00   8 3.06  26 3.06
                            27 3.06   5 3.12
  36  0.667  0.833  0.250-  90 1.94 108 1.94  88 1.94 105 1.94  45 2.00  99 2.00   9 3.06  27 3.06
                            25 3.06   6 3.06
  37  0.000  0.167  0.458-   1 1.94   7 1.94  28 2.00
  38  0.000  0.500  0.458-   2 1.94   8 1.94  29 2.00
  39  0.000  0.833  0.458-   3 1.94   9 1.94  30 2.00
  40  0.333  0.167  0.458-   4 1.94   1 1.94  31 2.00
  41  0.333  0.500  0.458-   5 1.84   2 1.94  32 2.00
  42  0.333  0.833  0.458-   6 1.94   3 1.94  33 2.00
  43  0.667  0.167  0.458-   7 1.94   4 1.94  34 2.00
  44  0.667  0.500  0.458-   8 1.94  35 2.00   5 2.04
  45  0.667  0.833  0.458-   9 1.94   6 1.94  36 2.00
  46  0.167  0.167  0.708-  11 1.94  10 1.94   1 2.00
  47  0.167  0.500  0.708-  11 1.94  12 1.94   2 2.00
  48  0.167  0.833  0.708-  12 1.94  10 1.94   3 2.00
  49  0.500  0.167  0.708-  14 1.94  13 1.94   4 2.00
  50  0.500  0.500  0.708-  14 1.94  15 1.94   5 2.00
  51  0.500  0.833  0.708-  15 1.94  13 1.94   6 2.00
  52  0.833  0.167  0.708-  17 1.94  16 1.94   7 2.00
  53  0.833  0.500  0.708-  17 1.94  18 1.94   8 2.00
  54  0.833  0.833  0.708-  18 1.94  16 1.94   9 2.00
  55  0.167  0.000  0.542-   1 1.94   3 1.94  10 2.00
  56  0.167  0.333  0.542-   2 1.94   1 1.94  11 2.00
  57  0.167  0.667  0.542-   3 1.94   2 1.94  12 2.00
  58  0.500  0.000  0.542-   4 1.94   6 1.94  13 2.00
  59  0.500  0.333  0.542-   4 1.94   5 1.94  14 2.00
  60  0.500  0.667  0.542-   6 1.94   5 1.94  15 2.00
  61  0.833  0.000  0.542-   7 1.94   9 1.94  16 2.00
  62  0.833  0.333  0.542-   8 1.94   7 1.94  17 2.00
  63  0.833  0.667  0.542-   9 1.94   8 1.94  18 2.00
  64  0.000  0.000  0.792-  10 1.94  16 1.94  19 2.00
  65  0.000  0.333  0.792-  11 1.94  17 1.94  20 2.00
  66  0.000  0.667  0.792-  12 1.94  18 1.94  21 2.00
  67  0.333  0.000  0.792-  13 1.94  10 1.94  22 2.00
  68  0.333  0.333  0.792-  14 1.94  11 1.94  23 2.00
  69  0.333  0.667  0.792-  15 1.94  12 1.94  24 2.00
  70  0.667  0.000  0.792-  16 1.94  13 1.94  25 2.00
  71  0.667  0.333  0.792-  17 1.94  14 1.94  26 2.00
  72  0.667  0.667  0.792-  18 1.94  15 1.94  27 2.00
  73  0.167  0.000  0.958-  22 1.94  19 1.94  10 2.00
  74  0.167  0.333  0.958-  23 1.94  20 1.94  11 2.00
  75  0.167  0.667  0.958-  24 1.94  21 1.94  12 2.00
  76  0.500  0.000  0.958-  22 1.94  25 1.94  13 2.00
  77  0.500  0.333  0.958-  23 1.94  26 1.94  14 2.00
  78  0.500  0.667  0.958-  24 1.94  27 1.94  15 2.00
  79  0.833  0.000  0.958-  25 1.94  19 1.94  16 2.00
  80  0.833  0.333  0.958-  26 1.94  20 1.94  17 2.00
  81  0.833  0.667  0.958-  27 1.94  21 1.94  18 2.00
  82  0.000  0.000  0.208-  28 1.94  30 1.94  19 2.00
  83  0.000  0.333  0.208-  29 1.94  28 1.94  20 2.00
  84  0.000  0.667  0.208-  30 1.94  29 1.94  21 2.00
  85  0.333  0.000  0.208-  31 1.94  33 1.94  22 2.00
  86  0.333  0.333  0.208-  32 1.94  31 1.94  23 2.00
  87  0.333  0.667  0.208-  33 1.94  32 1.94  24 2.00
  88  0.667  0.000  0.208-  34 1.94  36 1.94  25 2.00
  89  0.667  0.333  0.208-  35 1.94  34 1.94  26 2.00
  90  0.667  0.667  0.208-  36 1.94  35 1.94  27 2.00
  91  0.000  0.167  0.042-  20 1.94  19 1.94  28 2.00
  92  0.000  0.500  0.042-  20 1.94  21 1.94  29 2.00
  93  0.000  0.833  0.042-  21 1.94  19 1.94  30 2.00
  94  0.333  0.167  0.042-  23 1.94  22 1.94  31 2.00
  95  0.333  0.500  0.042-  23 1.94  24 1.94  32 2.00
  96  0.333  0.833  0.042-  24 1.94  22 1.94  33 2.00
  97  0.667  0.167  0.042-  26 1.94  25 1.94  34 2.00
  98  0.667  0.500  0.042-  26 1.94  27 1.94  35 2.00
  99  0.667  0.833  0.042-  27 1.94  25 1.94  36 2.00
 100  0.167  0.167  0.292-  31 1.94  28 1.94   1 2.00
 101  0.167  0.500  0.292-  32 1.94  29 1.94   2 2.00
 102  0.167  0.833  0.292-  33 1.94  30 1.94   3 2.00
 103  0.500  0.167  0.292-  31 1.94  34 1.94   4 2.00
 104  0.500  0.500  0.292-  32 1.94  35 1.94   5 2.00
 105  0.500  0.833  0.292-  33 1.94  36 1.94   6 2.00
 106  0.833  0.167  0.292-  34 1.94  28 1.94   7 2.00
 107  0.833  0.500  0.292-  35 1.94  29 1.94   8 2.00
 108  0.833  0.833  0.292-  36 1.94  30 1.94   9 2.00


IMPORTANT INFORMATION: All symmetrisations will be switched off!
NOSYMM: (Re-)initialisation of all symmetry stuff for point group C_1.


----------------------------------------------------------------------------------------

                                     Primitive cell

  volume of cell :    1243.1447

  direct lattice vectors                    reciprocal lattice vectors
    11.376843452  0.000000000  0.000000000     0.087897843  0.000000000  0.000000000
     0.000000000 11.376843452  0.000000000     0.000000000  0.087897843  0.000000000
     0.000000000  0.000000000  9.604574204     0.000000000  0.000000000  0.104117057

  length of vectors
    11.376843452 11.376843452  9.604574204     0.087897843  0.087897843  0.104117057

  position of ions in fractional coordinates (direct lattice)
     0.166666672  0.166666672  0.500000000
     0.166666672  0.500000000  0.500000000
     0.166666672  0.833333313  0.500000000
     0.500000000  0.166666672  0.500000000
     0.491210216  0.500000000  0.500000000
     0.500000000  0.833333313  0.500000000
     0.833333313  0.166666672  0.500000000
     0.833333313  0.500000000  0.500000000
     0.833333313  0.833333313  0.500000000
     0.166666672  0.000000000  0.750000000
     0.166666672  0.333333343  0.750000000
     0.166666672  0.666666687  0.750000000
     0.500000000  0.000000000  0.750000000
     0.500000000  0.333333343  0.750000000
     0.500000000  0.666666687  0.750000000
     0.833333313  0.000000000  0.750000000
     0.833333313  0.333333343  0.750000000
     0.833333313  0.666666687  0.750000000
     0.000000000  0.000000000  0.000000000
     0.000000000  0.333333343  0.000000000
     0.000000000  0.666666687  0.000000000
     0.333333343  0.000000000  0.000000000
     0.333333343  0.333333343  0.000000000
     0.333333343  0.666666687  0.000000000
     0.666666687  0.000000000  0.000000000
     0.666666687  0.333333343  0.000000000
     0.666666687  0.666666687  0.000000000
     0.000000000  0.166666672  0.250000000
     0.000000000  0.500000000  0.250000000
     0.000000000  0.833333313  0.250000000
     0.333333343  0.166666672  0.250000000
     0.333333343  0.500000000  0.250000000
     0.333333343  0.833333313  0.250000000
     0.666666687  0.166666672  0.250000000
     0.666666687  0.500000000  0.250000000
     0.666666687  0.833333313  0.250000000
     0.000000000  0.166666672  0.457898587
     0.000000000  0.500000000  0.457898587
     0.000000000  0.833333313  0.457898587
     0.333333343  0.166666672  0.457898587
     0.333333343  0.500000000  0.457898587
     0.333333343  0.833333313  0.457898587
     0.666666687  0.166666672  0.457898587
     0.666666687  0.500000000  0.457898587
     0.666666687  0.833333313  0.457898587
     0.166666672  0.166666672  0.707898617
     0.166666672  0.500000000  0.707898617
     0.166666672  0.833333313  0.707898617
     0.500000000  0.166666672  0.707898617
     0.500000000  0.500000000  0.707898617
     0.500000000  0.833333313  0.707898617
     0.833333313  0.166666672  0.707898617
     0.833333313  0.500000000  0.707898617
     0.833333313  0.833333313  0.707898617
     0.166666672  0.000000000  0.542101383
     0.166666672  0.333333343  0.542101383
     0.166666672  0.666666687  0.542101383
     0.500000000  0.000000000  0.542101383
     0.500000000  0.333333343  0.542101383
     0.500000000  0.666666687  0.542101383
     0.833333313  0.000000000  0.542101383
     0.833333313  0.333333343  0.542101383
     0.833333313  0.666666687  0.542101383
     0.000000000  0.000000000  0.792101383
     0.000000000  0.333333343  0.792101383
     0.000000000  0.666666687  0.792101383
     0.333333343  0.000000000  0.792101383
     0.333333343  0.333333343  0.792101383
     0.333333343  0.666666687  0.792101383
     0.666666687  0.000000000  0.792101383
     0.666666687  0.333333343  0.792101383
     0.666666687  0.666666687  0.792101383
     0.166666672  0.000000000  0.957898617
     0.166666672  0.333333343  0.957898617
     0.166666672  0.666666687  0.957898617
     0.500000000  0.000000000  0.957898617
     0.500000000  0.333333343  0.957898617
     0.500000000  0.666666687  0.957898617
     0.833333313  0.000000000  0.957898617
     0.833333313  0.333333343  0.957898617
     0.833333313  0.666666687  0.957898617
     0.000000000  0.000000000  0.207898602
     0.000000000  0.333333343  0.207898602
     0.000000000  0.666666687  0.207898602
     0.333333343  0.000000000  0.207898602
     0.333333343  0.333333343  0.207898602
     0.333333343  0.666666687  0.207898602
     0.666666687  0.000000000  0.207898602
     0.666666687  0.333333343  0.207898602
     0.666666687  0.666666687  0.207898602
     0.000000000  0.166666672  0.042101406
     0.000000000  0.500000000  0.042101406
     0.000000000  0.833333313  0.042101406
     0.333333343  0.166666672  0.042101406
     0.333333343  0.500000000  0.042101406
     0.333333343  0.833333313  0.042101406
     0.666666687  0.166666672  0.042101406
     0.666666687  0.500000000  0.042101406
     0.666666687  0.833333313  0.042101406
     0.166666672  0.166666672  0.292101413
     0.166666672  0.500000000  0.292101413
     0.166666672  0.833333313  0.292101413
     0.500000000  0.166666672  0.292101413
     0.500000000  0.500000000  0.292101413
     0.500000000  0.833333313  0.292101413
     0.833333313  0.166666672  0.292101413
     0.833333313  0.500000000  0.292101413
     0.833333313  0.833333313  0.292101413

  ion indices of the primitive-cell ions
   primitive index   ion index
                 1           1
                 2           2
                 3           3
                 4           4
                 5           5
                 6           6
                 7           7
                 8           8
                 9           9
                10          10
                11          11
                12          12
                13          13
                14          14
                15          15
                16          16
                17          17
                18          18
                19          19
                20          20
                21          21
                22          22
                23          23
                24          24
                25          25
                26          26
                27          27
                28          28
                29          29
                30          30
                31          31
                32          32
                33          33
                34          34
                35          35
                36          36
                37          37
                38          38
                39          39
                40          40
                41          41
                42          42
                43          43
                44          44
                45          45
                46          46
                47          47
                48          48
                49          49
                50          50
                51          51
                52          52
                53          53
                54          54
                55          55
                56          56
                57          57
                58          58
                59          59
                60          60
                61          61
                62          62
                63          63
                64          64
                65          65
                66          66
                67          67
                68          68
                69          69
                70          70
                71          71
                72          72
                73          73
                74          74
                75          75
                76          76
                77          77
                78          78
                79          79
                80          80
                81          81
                82          82
                83          83
                84          84
                85          85
                86          86
                87          87
                88          88
                89          89
                90          90
                91          91
                92          92
                93          93
                94          94
                95          95
                96          96
                97          97
                98          98
                99          99
               100         100
               101         101
               102         102
               103         103
               104         104
               105         105
               106         106
               107         107
               108         108

----------------------------------------------------------------------------------------



 KPOINTS: K-Points

Automatic generation of k-mesh.
 Grid dimensions read from file:
 generate k-points for:    2    2    2

 Generating k-lattice:

  Cartesian coordinates                     Fractional coordinates (reciprocal lattice)
     0.043948922  0.000000000  0.000000000     0.500000000  0.000000000  0.000000000
     0.000000000  0.043948922  0.000000000     0.000000000  0.500000000  0.000000000
     0.000000000  0.000000000  0.052058529     0.000000000  0.000000000  0.500000000

  Length of vectors
     0.043948922  0.043948922  0.052058529

  Shift w.r.t. Gamma in fractional coordinates (k-lattice)
     0.500000000  0.500000000  0.500000000


 Subroutine IBZKPT returns following result:
 ===========================================

 Found      4 irreducible k-points:

 Following reciprocal coordinates:
            Coordinates               Weight
  0.250000  0.250000  0.250000      2.000000
 -0.250000  0.250000  0.250000      2.000000
 -0.250000 -0.250000  0.250000      2.000000
  0.250000 -0.250000  0.250000      2.000000

 Following cartesian coordinates:
            Coordinates               Weight
  0.021974  0.021974  0.026029      2.000000
 -0.021974  0.021974  0.026029      2.000000
 -0.021974 -0.021974  0.026029      2.000000
  0.021974 -0.021974  0.026029      2.000000


 Subroutine IBZKPT_HF returns following result:
 ==============================================

 Found      8 k-points in 1st BZ
 the following      8 k-points will be used (e.g. in the exchange kernel)
 Following reciprocal coordinates:   # in IRBZ
  0.250000  0.250000  0.250000    0.12500000   1 t-inv F
 -0.250000  0.250000  0.250000    0.12500000   2 t-inv F
 -0.250000 -0.250000  0.250000    0.12500000   3 t-inv F
  0.250000 -0.250000  0.250000    0.12500000   4 t-inv F
 -0.250000 -0.250000 -0.250000    0.12500000   1 t-inv T
  0.250000 -0.250000 -0.250000    0.12500000   2 t-inv T
  0.250000  0.250000 -0.250000    0.12500000   3 t-inv T
 -0.250000  0.250000 -0.250000    0.12500000   4 t-inv T


--------------------------------------------------------------------------------------------------------




 Dimension of arrays:
   k-points           NKPTS =      4   k-points in BZ     NKDIM =      4   number of bands    NBANDS=    476
   number of dos      NEDOS =    301   number of ions     NIONS =    108
   non local maximal  LDIM  =      6   non local SUM 2l+1 LMDIM =     18
   total plane-waves  NPLWV = 150528
   max r-space proj   IRMAX =   1791   max aug-charges    IRDMAX=   4900
   dimension x,y,z NGX =    56 NGY =   56 NGZ =   48
   dimension x,y,z NGXF=   112 NGYF=  112 NGZF=   96
   support grid    NGXF=   112 NGYF=  112 NGZF=   96
   ions per type =              36  72
   NGX,Y,Z   is equivalent  to a cutoff of   8.18,  8.18,  8.31 a.u.
   NGXF,Y,Z  is equivalent  to a cutoff of  16.37, 16.37, 16.62 a.u.

 SYSTEM =  unknown system
 POSCAR =  Ti4 O8

 Startparameter for this run:
   NWRITE =      2    write-flag & timer
   PREC   = normal    normal or accurate (medium, high low for compatibility)
   ISTART =      0    job   : 0-new  1-cont  2-samecut
   ICHARG =      2    charge: 1-file 2-atom 10-const
   ISPIN  =      1    spin polarized calculation?
   LNONCOLLINEAR =      F non collinear calculations
   LSORBIT =      F    spin-orbit coupling
   INIWAV =      1    electr: 0-lowe 1-rand  2-diag
   LASPH  =      F    aspherical Exc in radial PAW
 Electronic Relaxation 1
   ENCUT  =  400.0 eV  29.40 Ry    5.42 a.u.  18.55 18.55 15.66*2*pi/ulx,y,z
   ENINI  =  400.0     initial cutoff
   ENAUG  =  605.4 eV  augmentation charge cutoff
   NELM   =     80;   NELMIN=  4; NELMDL= -5     # of ELM steps
   EDIFF  = 0.1E-06   stopping-criterion for ELM
   LREAL  =      T    real-space projection
   NLSPLINE    = F    spline interpolate recip. space projectors
   LCOMPAT=      F    compatible to vasp.4.4
   GGA_COMPAT  = T    GGA compatible to vasp.4.4-vasp.4.6
   LMAXPAW     = -100 max onsite density
   LMAXMIX     =    2 max onsite mixed and CHGCAR
   VOSKOWN=      0    Vosko Wilk Nusair interpolation
   ROPT   =   -0.00050  -0.00050
 Ionic relaxation
   EDIFFG = 0.1E-05   stopping-criterion for IOM
   NSW    =      0    number of steps for IOM
   NBLOCK =      1;   KBLOCK =      1    inner block; outer block
   IBRION =     -1    ionic relax: 0-MD 1-quasi-New 2-CG
   NFREE  =      0    steps in history (QN), initial steepest desc. (CG)
   ISIF   =      2    stress and relaxation
   IWAVPR =     10    prediction:  0-non 1-charg 2-wave 3-comb
   ISYM   =      0    0-nonsym 1-usesym 2-fastsym
   LCORR  =      T    Harris-Foulkes like correction to forces

   POTIM  = 0.5000    time-step for ionic-motion
   TEIN   =    0.0    initial temperature
   TEBEG  =    0.0;   TEEND  =   0.0 temperature during run
   SMASS  =  -3.00    Nose mass-parameter (am)
   estimated Nose-frequenzy (Omega)   =  0.10E-29 period in steps = 0.13E+47 mass=  -0.296E-26a.u.
   SCALEE = 1.0000    scale energy and forces
   NPACO  =    256;   APACO  = 10.0  distance and # of slots for P.C.
   PSTRESS=    0.0 pullay stress

  Mass of Ions in am
   POMASS =  47.88 16.00
  Ionic Valenz
   ZVAL   =  10.00  6.00
  Atomic Wigner-Seitz radii
   RWIGS  =  -1.00 -1.00
  virtual crystal weights
   VCA    =   1.00  1.00
   NELECT =     792.0000    total number of electrons
   NUPDOWN=      -1.0000    fix difference up-down

 DOS related values:
   EMIN   =  10.00;   EMAX   =-10.00  energy-range for DOS
   EFERMI =   0.00
   ISMEAR =     0;   SIGMA  =   0.10  broadening in eV -4-tet -1-fermi 0-gaus

 Electronic relaxation 2 (details)
   IALGO  =     38    algorithm
   LDIAG  =      T    sub-space diagonalisation (order eigenvalues)
   LSUBROT=      F    optimize rotation matrix (better conditioning)
   TURBO    =      0    0=normal 1=particle mesh
   IRESTART =      0    0=no restart 2=restart with 2 vectors
   NREBOOT  =      0    no. of reboots
   NMIN     =      0    reboot dimension
   EREF     =   0.00    reference energy to select bands
   IMIX   =      4    mixing-type and parameters
     AMIX     =   0.40;   BMIX     =  1.00
     AMIX_MAG =   1.60;   BMIX_MAG =  1.00
     AMIN     =   0.10
     WC   =   100.;   INIMIX=   1;  MIXPRE=   1;  MAXMIX= -45

 Intra band minimization:
   WEIMIN = 0.0000     energy-eigenvalue tresh-hold
   EBREAK =  0.53E-10  absolut break condition
   DEPER  =   0.30     relativ break condition

   TIME   =   0.40     timestep for ELM

  volume/ion in A,a.u.               =      11.51        77.68
  Fermi-wavevector in a.u.,A,eV,Ry     =   1.408670  2.662001 26.998745  1.984352
  Thomas-Fermi vector in A             =   2.530804

 Write flags
   LWAVE        =      F    write WAVECAR
   LDOWNSAMPLE  =      F    k-point downsampling of WAVECAR
   LCHARG       =      F    write CHGCAR
   LVTOT        =      F    write LOCPOT, total local potential
   LVHAR        =      F    write LOCPOT, Hartree potential only
   LELF         =      F    write electronic localiz. function (ELF)
   LORBIT       =      0    0 simple, 1 ext, 2 COOP (PROOUT), +10 PAW based schemes


 Dipole corrections
   LMONO  =      F    monopole corrections only (constant potential shift)
   LDIPOL =      F    correct potential (dipole corrections)
   IDIPOL =      0    1-x, 2-y, 3-z, 4-all directions
   EPSILON=  1.0000000 bulk dielectric constant

 Exchange correlation treatment:
   GGA     =    --    GGA type
   LEXCH   =     8    internal setting for exchange type
   LIBXC   =     F    Libxc
   VOSKOWN =     0    Vosko Wilk Nusair interpolation
   LHFCALC =     F    Hartree Fock is set to
   LHFONE  =     F    Hartree Fock one center treatment
   AEXX    =    0.0000 exact exchange contribution

 Linear response parameters
   LEPSILON=     T    determine dielectric tensor
   LRPA    =     F    only Hartree local field effects (RPA)
   LNABLA  =     F    use nabla operator in PAW spheres
   LVEL    =     F    velocity operator in full k-point grid
   CSHIFT  =0.1000    complex shift for real part using Kramers Kronig
   OMEGAMAX=  -1.0    maximum frequency
   DEG_THRESHOLD= 0.2000000E-02 threshold for treating states as degnerate
   RTIME   =   -0.100 relaxation time in fs
  (WPLASMAI=    0.000 imaginary part of plasma frequency in eV, 0.658/RTIME)
   DFIELD  = 0.0000000 0.0000000 0.0000000 field for delta impulse in time

  Optional k-point grid parameters
   LKPOINTS_OPT  =     F    use optional k-point grid
   KPOINTS_OPT_MODE=     1    mode for optional k-point grid

 Orbital magnetization related:
   ORBITALMAG=     F  switch on orbital magnetization
   LCHIMAG   =     F  perturbation theory with respect to B field
   DQ        =  0.001000  dq finite difference perturbation B field
   LLRAUG    =     F  two centre corrections for induced B field

 PEAD related settings:
   LPEAD      =     T    switch on PEAD
   IPEAD      =     4    finite difference order for dpsi/dk
   LCALCPOL   =     F    calculate macroscopic polarization
   LCALCEPS   =     F    calculate dielectric tensor
   EFIELD_PEAD=    0.0000    0.0000    0.0000
   SKIP_EDOTP =     F
   LRPA       =     F
   SKIP_SCF   =     F


--------------------------------------------------------------------------------------------------------


 Static calculation
 charge density and potential will be updated during run
 non-spin polarized calculation
 Variant of blocked Davidson
 Davidson routine will perform the subspace rotation
 perform sub-space diagonalisation
    after iterative eigenvector-optimisation
 modified Broyden-mixing scheme, WC =      100.0
 initial mixing is a Kerker type mixing with AMIX =  0.4000 and BMIX =      1.0000
 Hartree-type preconditioning will be used
 using additional bands           80
 real space projection scheme for non local part
 use partial core corrections
 calculate Harris-corrections to forces
   (improved forces if not selfconsistent)
 use gradient corrections
 use of overlap-Matrix (Vanderbilt PP)
 Gauss-broadening in eV      SIGMA  =   0.10


--------------------------------------------------------------------------------------------------------


  energy-cutoff  :      400.00
  volume of cell :     1243.14
      direct lattice vectors                 reciprocal lattice vectors
    11.376843452  0.000000000  0.000000000     0.087897843  0.000000000  0.000000000
     0.000000000 11.376843452  0.000000000     0.000000000  0.087897843  0.000000000
     0.000000000  0.000000000  9.604574204     0.000000000  0.000000000  0.104117057

  length of vectors
    11.376843452 11.376843452  9.604574204     0.087897843  0.087897843  0.104117057



 k-points in units of 2pi/SCALE and weight: K-Points
   0.02197446  0.02197446  0.02602926       0.250
  -0.02197446  0.02197446  0.02602926       0.250
  -0.02197446 -0.02197446  0.02602926       0.250
   0.02197446 -0.02197446  0.02602926       0.250

 k-points in reciprocal lattice and weights: K-Points
   0.25000000  0.25000000  0.25000000       0.250
  -0.25000000  0.25000000  0.25000000       0.250
  -0.25000000 -0.25000000  0.25000000       0.250
   0.25000000 -0.25000000  0.25000000       0.250

 position of ions in fractional coordinates (direct lattice)
   0.16666667  0.16666667  0.50000000
   0.16666667  0.50000000  0.50000000
   0.16666667  0.83333331  0.50000000
   0.50000000  0.16666667  0.50000000
   0.49121022  0.50000000  0.50000000
   0.50000000  0.83333331  0.50000000
   0.83333331  0.16666667  0.50000000
   0.83333331  0.50000000  0.50000000
   0.83333331  0.83333331  0.50000000
   0.16666667  0.00000000  0.75000000
   0.16666667  0.33333334  0.75000000
   0.16666667  0.66666669  0.75000000
   0.50000000  0.00000000  0.75000000
   0.50000000  0.33333334  0.75000000
   0.50000000  0.66666669  0.75000000
   0.83333331  0.00000000  0.75000000
   0.83333331  0.33333334  0.75000000
   0.83333331  0.66666669  0.75000000
   0.00000000  0.00000000  0.00000000
   0.00000000  0.33333334  0.00000000
   0.00000000  0.66666669  0.00000000
   0.33333334  0.00000000  0.00000000
   0.33333334  0.33333334  0.00000000
   0.33333334  0.66666669  0.00000000
   0.66666669  0.00000000  0.00000000
   0.66666669  0.33333334  0.00000000
   0.66666669  0.66666669  0.00000000
   0.00000000  0.16666667  0.25000000
   0.00000000  0.50000000  0.25000000
   0.00000000  0.83333331  0.25000000
   0.33333334  0.16666667  0.25000000
   0.33333334  0.50000000  0.25000000
   0.33333334  0.83333331  0.25000000
   0.66666669  0.16666667  0.25000000
   0.66666669  0.50000000  0.25000000
   0.66666669  0.83333331  0.25000000
   0.00000000  0.16666667  0.45789859
   0.00000000  0.50000000  0.45789859
   0.00000000  0.83333331  0.45789859
   0.33333334  0.16666667  0.45789859
   0.33333334  0.50000000  0.45789859
   0.33333334  0.83333331  0.45789859
   0.66666669  0.16666667  0.45789859
   0.66666669  0.50000000  0.45789859
   0.66666669  0.83333331  0.45789859
   0.16666667  0.16666667  0.70789862
   0.16666667  0.50000000  0.70789862
   0.16666667  0.83333331  0.70789862
   0.50000000  0.16666667  0.70789862
   0.50000000  0.50000000  0.70789862
   0.50000000  0.83333331  0.70789862
   0.83333331  0.16666667  0.70789862
   0.83333331  0.50000000  0.70789862
   0.83333331  0.83333331  0.70789862
   0.16666667  0.00000000  0.54210138
   0.16666667  0.33333334  0.54210138
   0.16666667  0.66666669  0.54210138
   0.50000000  0.00000000  0.54210138
   0.50000000  0.33333334  0.54210138
   0.50000000  0.66666669  0.54210138
   0.83333331  0.00000000  0.54210138
   0.83333331  0.33333334  0.54210138
   0.83333331  0.66666669  0.54210138
   0.00000000  0.00000000  0.79210138
   0.00000000  0.33333334  0.79210138
   0.00000000  0.66666669  0.79210138
   0.33333334  0.00000000  0.79210138
   0.33333334  0.33333334  0.79210138
   0.33333334  0.66666669  0.79210138
   0.66666669  0.00000000  0.79210138
   0.66666669  0.33333334  0.79210138
   0.66666669  0.66666669  0.79210138
   0.16666667  0.00000000  0.95789862
   0.16666667  0.33333334  0.95789862
   0.16666667  0.66666669  0.95789862
   0.50000000  0.00000000  0.95789862
   0.50000000  0.33333334  0.95789862
   0.50000000  0.66666669  0.95789862
   0.83333331  0.00000000  0.95789862
   0.83333331  0.33333334  0.95789862
   0.83333331  0.66666669  0.95789862
   0.00000000  0.00000000  0.20789860
   0.00000000  0.33333334  0.20789860
   0.00000000  0.66666669  0.20789860
   0.33333334  0.00000000  0.20789860
   0.33333334  0.33333334  0.20789860
   0.33333334  0.66666669  0.20789860
   0.66666669  0.00000000  0.20789860
   0.66666669  0.33333334  0.20789860
   0.66666669  0.66666669  0.20789860
   0.00000000  0.16666667  0.04210141
   0.00000000  0.50000000  0.04210141
   0.00000000  0.83333331  0.04210141
   0.33333334  0.16666667  0.04210141
   0.33333334  0.50000000  0.04210141
   0.33333334  0.83333331  0.04210141
   0.66666669  0.16666667  0.04210141
   0.66666669  0.50000000  0.04210141
   0.66666669  0.83333331  0.04210141
   0.16666667  0.16666667  0.29210141
   0.16666667  0.50000000  0.29210141
   0.16666667  0.83333331  0.29210141
   0.50000000  0.16666667  0.29210141
   0.50000000  0.50000000  0.29210141
   0.50000000  0.83333331  0.29210141
   0.83333331  0.16666667  0.29210141
   0.83333331  0.50000000  0.29210141
   0.83333331  0.83333331  0.29210141

 position of ions in cartesian coordinates  (Angst):
   1.89614063  1.89614063  4.80228710
   1.89614063  5.68842173  4.80228710
   1.89614063  9.48070265  4.80228710
   5.68842173  1.89614063  4.80228710
   5.58842173  5.68842173  4.80228710
   5.68842173  9.48070265  4.80228710
   9.48070265  1.89614063  4.80228710
   9.48070265  5.68842173  4.80228710
   9.48070265  9.48070265  4.80228710
   1.89614063  0.00000000  7.20343065
   1.89614063  3.79228126  7.20343065
   1.89614063  7.58456253  7.20343065
   5.68842173  0.00000000  7.20343065
   5.68842173  3.79228126  7.20343065
   5.68842173  7.58456253  7.20343065
   9.48070265  0.00000000  7.20343065
   9.48070265  3.79228126  7.20343065
   9.48070265  7.58456253  7.20343065
   0.00000000  0.00000000  0.00000000
   0.00000000  3.79228126  0.00000000
   0.00000000  7.58456253  0.00000000
   3.79228126  0.00000000  0.00000000
   3.79228126  3.79228126  0.00000000
   3.79228126  7.58456253  0.00000000
   7.58456253  0.00000000  0.00000000
   7.58456253  3.79228126  0.00000000
   7.58456253  7.58456253  0.00000000
   0.00000000  1.89614063  2.40114355
   0.00000000  5.68842173  2.40114355
   0.00000000  9.48070265  2.40114355
   3.79228126  1.89614063  2.40114355
   3.79228126  5.68842173  2.40114355
   3.79228126  9.48070265  2.40114355
   7.58456253  1.89614063  2.40114355
   7.58456253  5.68842173  2.40114355
   7.58456253  9.48070265  2.40114355
   0.00000000  1.89614063  4.39792096
   0.00000000  5.68842173  4.39792096
   0.00000000  9.48070265  4.39792096
   3.79228126  1.89614063  4.39792096
   3.79228126  5.68842173  4.39792096
   3.79228126  9.48070265  4.39792096
   7.58456253  1.89614063  4.39792096
   7.58456253  5.68842173  4.39792096
   7.58456253  9.48070265  4.39792096
   1.89614063  1.89614063  6.79906479
   1.89614063  5.68842173  6.79906479
   1.89614063  9.48070265  6.79906479
   5.68842173  1.89614063  6.79906479
   5.68842173  5.68842173  6.79906479
   5.68842173  9.48070265  6.79906479
   9.48070265  1.89614063  6.79906479
   9.48070265  5.68842173  6.79906479
   9.48070265  9.48070265  6.79906479
   1.89614063  0.00000000  5.20665296
   1.89614063  3.79228126  5.20665296
   1.89614063  7.58456253  5.20665296
   5.68842173  0.00000000  5.20665296
   5.68842173  3.79228126  5.20665296
   5.68842173  7.58456253  5.20665296
   9.48070265  0.00000000  5.20665296
   9.48070265  3.79228126  5.20665296
   9.48070265  7.58456253  5.20665296
   0.00000000  0.00000000  7.60779651
   0.00000000  3.79228126  7.60779651
   0.00000000  7.58456253  7.60779651
   3.79228126  0.00000000  7.60779651
   3.79228126  3.79228126  7.60779651
   3.79228126  7.58456253  7.60779651
   7.58456253  0.00000000  7.60779651
   7.58456253  3.79228126  7.60779651
   7.58456253  7.58456253  7.60779651
   1.89614063  0.00000000  9.20020834
   1.89614063  3.79228126  9.20020834
   1.89614063  7.58456253  9.20020834
   5.68842173  0.00000000  9.20020834
   5.68842173  3.79228126  9.20020834
   5.68842173  7.58456253  9.20020834
   9.48070265  0.00000000  9.20020834
   9.48070265  3.79228126  9.20020834
   9.48070265  7.58456253  9.20020834
   0.00000000  0.00000000  1.99677755
   0.00000000  3.79228126  1.99677755
   0.00000000  7.58456253  1.99677755
   3.79228126  0.00000000  1.99677755
   3.79228126  3.79228126  1.99677755
   3.79228126  7.58456253  1.99677755
   7.58456253  0.00000000  1.99677755
   7.58456253  3.79228126  1.99677755
   7.58456253  7.58456253  1.99677755
   0.00000000  1.89614063  0.40436607
   0.00000000  5.68842173  0.40436607
   0.00000000  9.48070265  0.40436607
   3.79228126  1.89614063  0.40436607
   3.79228126  5.68842173  0.40436607
   3.79228126  9.48070265  0.40436607
   7.58456253  1.89614063  0.40436607
   7.58456253  5.68842173  0.40436607
   7.58456253  9.48070265  0.40436607
   1.89614063  1.89614063  2.80550970
   1.89614063  5.68842173  2.80550970
   1.89614063  9.48070265  2.80550970
   5.68842173  1.89614063  2.80550970
   5.68842173  5.68842173  2.80550970
   5.68842173  9.48070265  2.80550970
   9.48070265  1.89614063  2.80550970
   9.48070265  5.68842173  2.80550970
   9.48070265  9.48070265  2.80550970



--------------------------------------------------------------------------------------------------------


 k-point   1 :   0.2500 0.2500 0.2500  plane waves:   22590
 k-point   2 :  -0.2500 0.2500 0.2500  plane waves:   22590
 k-point   3 :  -0.2500-0.2500 0.2500  plane waves:   22590
 k-point   4 :   0.2500-0.2500 0.2500  plane waves:   22590

 maximum and minimum number of plane-waves per node :     22590    22590

 maximum number of plane-waves:     22590
 maximum index in each direction:
   IXMAX=   18   IYMAX=   18   IZMAX=   15
   IXMIN=  -18   IYMIN=  -18   IZMIN=  -15


 serial   3D FFT for wavefunctions
 parallel 3D FFT for charge:
    minimum data exchange during FFTs selected (reduces bandwidth)


 total amount of memory used by VASP MPI-rank0   266717. kBytes
=======================================================================

   base      :      30000. kBytes
   nonlr-proj:      19548. kBytes
   fftplans  :      10927. kBytes
   grid      :      23181. kBytes
   one-center:       1679. kBytes
   wavefun   :     181382. kBytes

     INWAV:  cpu time      0.0000: real time      0.0002
 Broyden mixing: mesh for mixing (old mesh)
   NGX = 37   NGY = 37   NGZ = 31
  (NGX  =112   NGY  =112   NGZ  = 96)
  gives a total of  42439 points

 initial charge density was supplied:
 charge density of overlapping atoms calculated
 number of electron     792.0000000 magnetization
 keeping initial charge density in first step


--------------------------------------------------------------------------------------------------------


 Maximum index for non-local projection operator         1743
 Maximum index for augmentation-charges         1189 (set IRDMAX)


--------------------------------------------------------------------------------------------------------


 First call to EWALD:  gamma=   0.165
 Maximum number of real-space cells 3x 3x 3
 Maximum number of reciprocal cells 3x 3x 3

    FEWALD:  cpu time      0.3161: real time      0.3177


--------------------------------------- Iteration      1(   1)  ---------------------------------------


    POTLOK:  cpu time      0.2226: real time      0.2246
    SETDIJ:  cpu time      0.0110: real time      0.0111
     EDDAV:  cpu time     14.4372: real time     14.5387
       DOS:  cpu time      0.0036: real time      0.0036
    --------------------------------------------
      LOOP:  cpu time     14.6743: real time     14.7781

 eigenvalue-minimisations  :  3824
 total energy-change (2. order) : 0.1155987E+05  (-0.3305632E+05)
 number of electron     792.0000000 magnetization
 augmentation part      792.0000000 magnetization

 Free energy of the ion-electron system (eV)
  ---------------------------------------------------
  alpha Z        PSCENC =      3563.47650690
  Ewald energy   TEWEN  =    -48587.85276389
  -Hartree energ DENC   =    -18841.62124407
  -exchange      EXHF   =         0.00000000
  -V(xc)+E(xc)   XCENC  =      3286.86446898
  PAW double counting   =     54431.09303398   -54537.79254336
  entropy T*S    EENTRO =        -0.14043098
  eigenvalues    EBANDS =      3589.44620492
  atomic energy  EATOM  =     68656.39924158
  Solvation  Ediel_sol  =         0.00000000
  ---------------------------------------------------
  free energy    TOTEN  =     11559.87247405 eV

  energy without entropy =    11560.01290503  energy(sigma->0) =    11559.94268954


--------------------------------------------------------------------------------------------------------




--------------------------------------- Iteration      1(   2)  ---------------------------------------


     EDDAV:  cpu time     14.4688: real time     14.5732
       DOS:  cpu time      0.0010: real time      0.0010
    --------------------------------------------
      LOOP:  cpu time     14.4698: real time     14.5742

 eigenvalue-minimisations  :  3808
 total energy-change (2. order) :-0.9986872E+04  (-0.9556404E+04)
 number of electron     792.0000000 magnetization
 augmentation part      792.0000000 magnetization

 Free energy of the ion-electron system (eV)
  ---------------------------------------------------
  alpha Z        PSCENC =      3563.47650690
  Ewald energy   TEWEN  =    -48587.85276389
  -Hartree energ DENC   =    -18841.62124407
  -exchange      EXHF   =         0.00000000
  -V(xc)+E(xc)   XCENC  =      3286.86446898
  PAW double counting   =     54431.09303398   -54537.79254336
  entropy T*S    EENTRO =        -0.29248352
  eigenvalues    EBANDS =     -6397.27401374
  atomic energy  EATOM  =     68656.39924158
  Solvation  Ediel_sol  =         0.00000000
  ---------------------------------------------------
  free energy    TOTEN  =      1573.00020286 eV

  energy without entropy =     1573.29268637  energy(sigma->0) =     1573.14644462


--------------------------------------------------------------------------------------------------------




--------------------------------------- Iteration      1(   3)  ---------------------------------------


     EDDAV:  cpu time     16.2721: real time     16.3913
       DOS:  cpu time      0.0026: real time      0.0026
    --------------------------------------------
      LOOP:  cpu time     16.2747: real time     16.3939

 eigenvalue-minimisations  :  4440
 total energy-change (2. order) :-0.2644079E+04  (-0.2570440E+04)
 number of electron     792.0000000 magnetization
 augmentation part      792.0000000 magnetization

 Free energy of the ion-electron system (eV)
  ---------------------------------------------------
  alpha Z        PSCENC =      3563.47650690
  Ewald energy   TEWEN  =    -48587.85276389
  -Hartree energ DENC   =    -18841.62124407
  -exchange      EXHF   =         0.00000000
  -V(xc)+E(xc)   XCENC  =      3286.86446898
  PAW double counting   =     54431.09303398   -54537.79254336
  entropy T*S    EENTRO =        -0.00000000
  eigenvalues    EBANDS =     -9041.64559117
  atomic energy  EATOM  =     68656.39924158
  Solvation  Ediel_sol  =         0.00000000
  ---------------------------------------------------
  free energy    TOTEN  =     -1071.07889106 eV

  energy without entropy =    -1071.07889106  energy(sigma->0) =    -1071.07889106


--------------------------------------------------------------------------------------------------------




--------------------------------------- Iteration      1(   4)  ---------------------------------------


     EDDAV:  cpu time     18.2220: real time     18.3539
       DOS:  cpu time      0.0009: real time      0.0009
    --------------------------------------------
      LOOP:  cpu time     18.2229: real time     18.3549

 eigenvalue-minimisations  :  5040
 total energy-change (2. order) :-0.2024404E+03  (-0.2014069E+03)
 number of electron     792.0000000 magnetization
 augmentation part      792.0000000 magnetization

 Free energy of the ion-electron system (eV)
  ---------------------------------------------------
  alpha Z        PSCENC =      3563.47650690
  Ewald energy   TEWEN  =    -48587.85276389
  -Hartree energ DENC   =    -18841.62124407
  -exchange      EXHF   =         0.00000000
  -V(xc)+E(xc)   XCENC  =      3286.86446898
  PAW double counting   =     54431.09303398   -54537.79254336
  entropy T*S    EENTRO =        -0.00000000
  eigenvalues    EBANDS =     -9244.08602816
  atomic energy  EATOM  =     68656.39924158
  Solvation  Ediel_sol  =         0.00000000
  ---------------------------------------------------
  free energy    TOTEN  =     -1273.51932804 eV

  energy without entropy =    -1273.51932804  energy(sigma->0) =    -1273.51932804


--------------------------------------------------------------------------------------------------------




--------------------------------------- Iteration      1(   5)  ---------------------------------------


     EDDAV:  cpu time     18.1984: real time     18.3275
       DOS:  cpu time      0.0009: real time      0.0009
    CHARGE:  cpu time      0.2425: real time      0.2475
    MIXING:  cpu time      0.0122: real time      0.0124
    --------------------------------------------
      LOOP:  cpu time     18.4541: real time     18.5884

 eigenvalue-minimisations  :  5008
 total energy-change (2. order) :-0.5102692E+01  (-0.5091685E+01)
 number of electron     792.0003053 magnetization
 augmentation part      202.2468481 magnetization

 Broyden mixing:
  rms(total) = 0.17247E+02    rms(broyden)= 0.17246E+02
  rms(prec ) = 0.19183E+02
  weight for this iteration     100.00

 Free energy of the ion-electron system (eV)
  ---------------------------------------------------
  alpha Z        PSCENC =      3563.47650690
  Ewald energy   TEWEN  =    -48587.85276389
  -Hartree energ DENC   =    -18841.62124407
  -exchange      EXHF   =         0.00000000
  -V(xc)+E(xc)   XCENC  =      3286.86446898
  PAW double counting   =     54431.09303398   -54537.79254336
  entropy T*S    EENTRO =        -0.00000000
  eigenvalues    EBANDS =     -9249.18872017
  atomic energy  EATOM  =     68656.39924158
  Solvation  Ediel_sol  =         0.00000000
  ---------------------------------------------------
  free energy    TOTEN  =     -1278.62202005 eV

  energy without entropy =    -1278.62202005  energy(sigma->0) =    -1278.62202005


--------------------------------------------------------------------------------------------------------




--------------------------------------- Iteration      1(   6)  ---------------------------------------


    POTLOK:  cpu time      0.2139: real time      0.2156
    SETDIJ:  cpu time      0.0120: real time      0.0121
     EDDAV:  cpu time     17.9279: real time     18.0557
       DOS:  cpu time      0.0006: real time      0.0006
    CHARGE:  cpu time      0.2360: real time      0.2395
    MIXING:  cpu time      0.0121: real time      0.0122
    --------------------------------------------
      LOOP:  cpu time     18.4026: real time     18.5358

 eigenvalue-minimisations  :  4976
 total energy-change (2. order) : 0.3023594E+03  (-0.1974325E+03)
 number of electron     792.0002460 magnetization
 augmentation part      214.1196286 magnetization

 Broyden mixing:
  rms(total) = 0.53091E+01    rms(broyden)= 0.53041E+01
  rms(prec ) = 0.58354E+01
  weight for this iteration     100.00

 eigenvalues of (default mixing * dielectric matrix)
  average eigenvalue GAMMA=   0.9656
  0.9656

 Free energy of the ion-electron system (eV)
  ---------------------------------------------------
  alpha Z        PSCENC =      3563.47650690
  Ewald energy   TEWEN  =    -48587.85276389
  -Hartree energ DENC   =    -19066.41001520
  -exchange      EXHF   =         0.00000000
  -V(xc)+E(xc)   XCENC  =      3337.87594524
  PAW double counting   =     68261.62628672   -68493.95774532
  entropy T*S    EENTRO =        -0.00000000
  eigenvalues    EBANDS =     -8647.42010113
  atomic energy  EATOM  =     68656.39924158
  Solvation  Ediel_sol  =         0.00000000
  ---------------------------------------------------
  free energy    TOTEN  =      -976.26264511 eV

  energy without entropy =     -976.26264511  energy(sigma->0) =     -976.26264511


--------------------------------------------------------------------------------------------------------




--------------------------------------- Iteration      1(   7)  ---------------------------------------


    POTLOK:  cpu time      0.2108: real time      0.2130
    SETDIJ:  cpu time      0.0093: real time      0.0094
     EDDAV:  cpu time     19.0606: real time     19.1972
       DOS:  cpu time      0.0006: real time      0.0006
    CHARGE:  cpu time      0.2389: real time      0.2414
    MIXING:  cpu time      0.0124: real time      0.0125
    --------------------------------------------
      LOOP:  cpu time     19.5325: real time     19.6739

 eigenvalue-minimisations  :  5328
 total energy-change (2. order) : 0.4258159E+01  (-0.2858867E+02)
 number of electron     792.0002651 magnetization
 augmentation part      207.3419717 magnetization

 Broyden mixing:
  rms(total) = 0.45930E+01    rms(broyden)= 0.45927E+01
  rms(prec ) = 0.47850E+01
  weight for this iteration     100.00

 eigenvalues of (default mixing * dielectric matrix)
  average eigenvalue GAMMA=   1.8457
  0.7381  2.9534

 Free energy of the ion-electron system (eV)
  ---------------------------------------------------
  alpha Z        PSCENC =      3563.47650690
  Ewald energy   TEWEN  =    -48587.85276389
  -Hartree energ DENC   =    -18909.66558282
  -exchange      EXHF   =         0.00000000
  -V(xc)+E(xc)   XCENC  =      3318.68056476
  PAW double counting   =     75269.89670664   -75513.24887882
  entropy T*S    EENTRO =        -0.00000000
  eigenvalues    EBANDS =     -8769.69028066
  atomic energy  EATOM  =     68656.39924158
  Solvation  Ediel_sol  =         0.00000000
  ---------------------------------------------------
  free energy    TOTEN  =      -972.00448631 eV

  energy without entropy =     -972.00448631  energy(sigma->0) =     -972.00448631


--------------------------------------------------------------------------------------------------------




--------------------------------------- Iteration      1(   8)  ---------------------------------------


    POTLOK:  cpu time      0.2093: real time      0.2114
    SETDIJ:  cpu time      0.0121: real time      0.0121
     EDDAV:  cpu time     18.0449: real time     18.1712
       DOS:  cpu time      0.0006: real time      0.0006
    CHARGE:  cpu time      0.2369: real time      0.2395
    MIXING:  cpu time      0.0129: real time      0.0130
    --------------------------------------------
      LOOP:  cpu time     18.5167: real time     18.6478

 eigenvalue-minimisations  :  5016
 total energy-change (2. order) :-0.8094856E-01  (-0.1098732E+02)
 number of electron     792.0002585 magnetization
 augmentation part      215.5629332 magnetization

 Broyden mixing:
  rms(total) = 0.33627E+01    rms(broyden)= 0.33625E+01
  rms(prec ) = 0.36592E+01
  weight for this iteration     100.00

 eigenvalues of (default mixing * dielectric matrix)
  average eigenvalue GAMMA=   1.2328
  2.1640  0.9333  0.6012

 Free energy of the ion-electron system (eV)
  ---------------------------------------------------
  alpha Z        PSCENC =      3563.47650690
  Ewald energy   TEWEN  =    -48587.85276389
  -Hartree energ DENC   =    -18532.27552327
  -exchange      EXHF   =         0.00000000
  -V(xc)+E(xc)   XCENC  =      3303.86254228
  PAW double counting   =     93892.56581996   -94208.15556538
  entropy T*S    EENTRO =        -0.00000000
  eigenvalues    EBANDS =     -9060.10569305
  atomic energy  EATOM  =     68656.39924158
  Solvation  Ediel_sol  =         0.00000000
  ---------------------------------------------------
  free energy    TOTEN  =      -972.08543487 eV

  energy without entropy =     -972.08543487  energy(sigma->0) =     -972.08543487


--------------------------------------------------------------------------------------------------------




--------------------------------------- Iteration      1(   9)  ---------------------------------------


    POTLOK:  cpu time      0.2027: real time      0.2050
    SETDIJ:  cpu time      0.0169: real time      0.0169
     EDDAV:  cpu time     18.4107: real time     18.5413
       DOS:  cpu time      0.0006: real time      0.0006
    CHARGE:  cpu time      0.2374: real time      0.2401
    MIXING:  cpu time      0.0135: real time      0.0136
    --------------------------------------------
      LOOP:  cpu time     18.8817: real time     19.0174

 eigenvalue-minimisations  :  5120
 total energy-change (2. order) : 0.5533462E+01  (-0.3461099E+01)
 number of electron     792.0002633 magnetization
 augmentation part      211.4490846 magnetization

 Broyden mixing:
  rms(total) = 0.24470E+00    rms(broyden)= 0.24394E+00
  rms(prec ) = 0.26959E+00
  weight for this iteration     100.00

 eigenvalues of (default mixing * dielectric matrix)
  average eigenvalue GAMMA=   1.2525
  2.2156  1.0856  1.0856  0.6233

 Free energy of the ion-electron system (eV)
  ---------------------------------------------------
  alpha Z        PSCENC =      3563.47650690
  Ewald energy   TEWEN  =    -48587.85276389
  -Hartree energ DENC   =    -18678.16738753
  -exchange      EXHF   =         0.00000000
  -V(xc)+E(xc)   XCENC  =      3308.82185183
  PAW double counting   =     88574.77650557   -88870.99444861
  entropy T*S    EENTRO =        -0.00000000
  eigenvalues    EBANDS =     -8933.01147901
  atomic energy  EATOM  =     68656.39924158
  Solvation  Ediel_sol  =         0.00000000
  ---------------------------------------------------
  free energy    TOTEN  =      -966.55197316 eV

  energy without entropy =     -966.55197316  energy(sigma->0) =     -966.55197316


--------------------------------------------------------------------------------------------------------




--------------------------------------- Iteration      1(  10)  ---------------------------------------


    POTLOK:  cpu time      0.2166: real time      0.2187
    SETDIJ:  cpu time      0.0083: real time      0.0084
     EDDAV:  cpu time     18.8177: real time     18.9482
       DOS:  cpu time      0.0006: real time      0.0006
    CHARGE:  cpu time      0.2393: real time      0.2422
    MIXING:  cpu time      0.0135: real time      0.0136
    --------------------------------------------
      LOOP:  cpu time     19.2960: real time     19.4318

 eigenvalue-minimisations  :  5256
 total energy-change (2. order) :-0.6085096E-01  (-0.9939290E-01)
 number of electron     792.0002623 magnetization
 augmentation part      211.5886712 magnetization

 Broyden mixing:
  rms(total) = 0.24790E+00    rms(broyden)= 0.24787E+00
  rms(prec ) = 0.27543E+00
  weight for this iteration     100.00

 eigenvalues of (default mixing * dielectric matrix)
  average eigenvalue GAMMA=   1.3279
  2.5229  1.8353  1.0233  0.6910  0.5669

 Free energy of the ion-electron system (eV)
  ---------------------------------------------------
  alpha Z        PSCENC =      3563.47650690
  Ewald energy   TEWEN  =    -48587.85276389
  -Hartree energ DENC   =    -18712.81395478
  -exchange      EXHF   =         0.00000000
  -V(xc)+E(xc)   XCENC  =      3311.41474029
  PAW double counting   =     88946.17015035   -89246.41419435
  entropy T*S    EENTRO =        -0.00000000
  eigenvalues    EBANDS =     -8896.99255022
  atomic energy  EATOM  =     68656.39924158
  Solvation  Ediel_sol  =         0.00000000
  ---------------------------------------------------
  free energy    TOTEN  =      -966.61282412 eV

  energy without entropy =     -966.61282412  energy(sigma->0) =     -966.61282412


--------------------------------------------------------------------------------------------------------




--------------------------------------- Iteration      1(  11)  ---------------------------------------


    POTLOK:  cpu time      0.2054: real time      0.2069
    SETDIJ:  cpu time      0.0206: real time      0.0207
     EDDAV:  cpu time     16.7831: real time     16.9006
       DOS:  cpu time      0.0006: real time      0.0006
    CHARGE:  cpu time      0.2341: real time      0.2354
    MIXING:  cpu time      0.0155: real time      0.0156
    --------------------------------------------
      LOOP:  cpu time     17.2592: real time     17.3798

 eigenvalue-minimisations  :  4584
 total energy-change (2. order) :-0.7634183E-02  (-0.1511757E-01)
 number of electron     792.0002620 magnetization
 augmentation part      211.4198727 magnetization

 Broyden mixing:
  rms(total) = 0.14816E+00    rms(broyden)= 0.14816E+00
  rms(prec ) = 0.17957E+00
  weight for this iteration     100.00

 eigenvalues of (default mixing * dielectric matrix)
  average eigenvalue GAMMA=   1.2841
  2.5305  1.7976  1.0878  1.0878  0.6247  0.5765

 Free energy of the ion-electron system (eV)
  ---------------------------------------------------
  alpha Z        PSCENC =      3563.47650690
  Ewald energy   TEWEN  =    -48587.85276389
  -Hartree energ DENC   =    -18741.16631524
  -exchange      EXHF   =         0.00000000
  -V(xc)+E(xc)   XCENC  =      3313.18102902
  PAW double counting   =     89222.17440453   -89524.91375870
  entropy T*S    EENTRO =        -0.00000000
  eigenvalues    EBANDS =     -8867.91880251
  atomic energy  EATOM  =     68656.39924158
  Solvation  Ediel_sol  =         0.00000000
  ---------------------------------------------------
  free energy    TOTEN  =      -966.62045831 eV

  energy without entropy =     -966.62045831  energy(sigma->0) =     -966.62045831


--------------------------------------------------------------------------------------------------------




--------------------------------------- Iteration      1(  12)  ---------------------------------------


    POTLOK:  cpu time      0.2038: real time      0.2054
    SETDIJ:  cpu time      0.0158: real time      0.0159
     EDDAV:  cpu time     19.1515: real time     19.2889
       DOS:  cpu time      0.0006: real time      0.0006
    CHARGE:  cpu time      0.2359: real time      0.2371
    MIXING:  cpu time      0.0144: real time      0.0145
    --------------------------------------------
      LOOP:  cpu time     19.6219: real time     19.7623

 eigenvalue-minimisations  :  5288
 total energy-change (2. order) : 0.2418807E-01  (-0.2781935E-01)
 number of electron     792.0002627 magnetization
 augmentation part      211.1785027 magnetization

 Broyden mixing:
  rms(total) = 0.54680E-01    rms(broyden)= 0.54597E-01
  rms(prec ) = 0.63070E-01
  weight for this iteration     100.00

 eigenvalues of (default mixing * dielectric matrix)
  average eigenvalue GAMMA=   1.2470
  2.5773  1.6369  1.6369  0.9956  0.6848  0.5988  0.5988

 Free energy of the ion-electron system (eV)
  ---------------------------------------------------
  alpha Z        PSCENC =      3563.47650690
  Ewald energy   TEWEN  =    -48587.85276389
  -Hartree energ DENC   =    -18738.17659425
  -exchange      EXHF   =         0.00000000
  -V(xc)+E(xc)   XCENC  =      3312.65226624
  PAW double counting   =     89229.15497301   -89530.96204330
  entropy T*S    EENTRO =        -0.00000000
  eigenvalues    EBANDS =     -8871.28785653
  atomic energy  EATOM  =     68656.39924158
  Solvation  Ediel_sol  =         0.00000000
  ---------------------------------------------------
  free energy    TOTEN  =      -966.59627024 eV

  energy without entropy =     -966.59627024  energy(sigma->0) =     -966.59627024


--------------------------------------------------------------------------------------------------------




--------------------------------------- Iteration      1(  13)  ---------------------------------------


    POTLOK:  cpu time      0.2036: real time      0.2057
    SETDIJ:  cpu time      0.0161: real time      0.0161
     EDDAV:  cpu time     18.8527: real time     18.9829
       DOS:  cpu time      0.0006: real time      0.0006
    CHARGE:  cpu time      0.2365: real time      0.2385
    MIXING:  cpu time      0.0143: real time      0.0144
    --------------------------------------------
      LOOP:  cpu time     19.3237: real time     19.4582

 eigenvalue-minimisations  :  5280
 total energy-change (2. order) : 0.8784106E-03  (-0.1409719E-02)
 number of electron     792.0002626 magnetization
 augmentation part      211.2263294 magnetization

 Broyden mixing:
  rms(total) = 0.22995E-01    rms(broyden)= 0.22989E-01
  rms(prec ) = 0.27847E-01
  weight for this iteration     100.00

 eigenvalues of (default mixing * dielectric matrix)
  average eigenvalue GAMMA=   1.2149
  2.5551  1.7131  1.7131  1.0154  0.7603  0.7603  0.6126  0.5891

 Free energy of the ion-electron system (eV)
  ---------------------------------------------------
  alpha Z        PSCENC =      3563.47650690
  Ewald energy   TEWEN  =    -48587.85276389
  -Hartree energ DENC   =    -18737.76870168
  -exchange      EXHF   =         0.00000000
  -V(xc)+E(xc)   XCENC  =      3312.66224252
  PAW double counting   =     89264.60491798   -89566.38414024
  entropy T*S    EENTRO =        -0.00000000
  eigenvalues    EBANDS =     -8871.73269499
  atomic energy  EATOM  =     68656.39924158
  Solvation  Ediel_sol  =         0.00000000
  ---------------------------------------------------
  free energy    TOTEN  =      -966.59539183 eV

  energy without entropy =     -966.59539183  energy(sigma->0) =     -966.59539183


--------------------------------------------------------------------------------------------------------




--------------------------------------- Iteration      1(  14)  ---------------------------------------


    POTLOK:  cpu time      0.2063: real time      0.2080
    SETDIJ:  cpu time      0.0128: real time      0.0128
     EDDAV:  cpu time     18.9976: real time     19.1322
       DOS:  cpu time      0.0006: real time      0.0006
    CHARGE:  cpu time      0.2357: real time      0.2370
    MIXING:  cpu time      0.0157: real time      0.0159
    --------------------------------------------
      LOOP:  cpu time     19.4687: real time     19.6065

 eigenvalue-minimisations  :  5312
 total energy-change (2. order) : 0.7106576E-04  (-0.1130593E-03)
 number of electron     792.0002626 magnetization
 augmentation part      211.2196183 magnetization

 Broyden mixing:
  rms(total) = 0.19106E-01    rms(broyden)= 0.19105E-01
  rms(prec ) = 0.22623E-01
  weight for this iteration     100.00

 eigenvalues of (default mixing * dielectric matrix)
  average eigenvalue GAMMA=   1.2534
  2.5089  2.0138  2.0138  1.0196  0.9634  0.9634  0.6573  0.5704  0.5704

 Free energy of the ion-electron system (eV)
  ---------------------------------------------------
  alpha Z        PSCENC =      3563.47650690
  Ewald energy   TEWEN  =    -48587.85276389
  -Hartree energ DENC   =    -18739.18933882
  -exchange      EXHF   =         0.00000000
  -V(xc)+E(xc)   XCENC  =      3312.74106658
  PAW double counting   =     89240.91612239   -89542.57364699
  entropy T*S    EENTRO =        -0.00000000
  eigenvalues    EBANDS =     -8870.51250850
  atomic energy  EATOM  =     68656.39924158
  Solvation  Ediel_sol  =         0.00000000
  ---------------------------------------------------
  free energy    TOTEN  =      -966.59532076 eV

  energy without entropy =     -966.59532076  energy(sigma->0) =     -966.59532076


--------------------------------------------------------------------------------------------------------




--------------------------------------- Iteration      1(  15)  ---------------------------------------


    POTLOK:  cpu time      0.2105: real time      0.2128
    SETDIJ:  cpu time      0.0108: real time      0.0109
     EDDAV:  cpu time     19.0631: real time     19.1944
       DOS:  cpu time      0.0006: real time      0.0006
    CHARGE:  cpu time      0.2374: real time      0.2388
    MIXING:  cpu time      0.0157: real time      0.0158
    --------------------------------------------
      LOOP:  cpu time     19.5381: real time     19.6733

 eigenvalue-minimisations  :  5344
 total energy-change (2. order) : 0.7157476E-04  (-0.1516778E-03)
 number of electron     792.0002625 magnetization
 augmentation part      211.2315864 magnetization

 Broyden mixing:
  rms(total) = 0.82797E-02    rms(broyden)= 0.82757E-02
  rms(prec ) = 0.99647E-02
  weight for this iteration     100.00

 eigenvalues of (default mixing * dielectric matrix)
  average eigenvalue GAMMA=   1.2371
  2.6607  2.3719  2.0426  0.9380  0.9380  0.8378  0.8378  0.6040  0.5702  0.5702

 Free energy of the ion-electron system (eV)
  ---------------------------------------------------
  alpha Z        PSCENC =      3563.47650690
  Ewald energy   TEWEN  =    -48587.85276389
  -Hartree energ DENC   =    -18740.27819582
  -exchange      EXHF   =         0.00000000
  -V(xc)+E(xc)   XCENC  =      3312.80778416
  PAW double counting   =     89227.60865992   -89529.12168853
  entropy T*S    EENTRO =        -0.00000000
  eigenvalues    EBANDS =     -8869.63479351
  atomic energy  EATOM  =     68656.39924158
  Solvation  Ediel_sol  =         0.00000000
  ---------------------------------------------------
  free energy    TOTEN  =      -966.59524919 eV

  energy without entropy =     -966.59524919  energy(sigma->0) =     -966.59524919


--------------------------------------------------------------------------------------------------------




--------------------------------------- Iteration      1(  16)  ---------------------------------------


    POTLOK:  cpu time      0.2043: real time      0.2063
    SETDIJ:  cpu time      0.0185: real time      0.0191
     EDDAV:  cpu time     18.7028: real time     18.8327
       DOS:  cpu time      0.0010: real time      0.0011
    CHARGE:  cpu time      0.2360: real time      0.2375
    MIXING:  cpu time      0.0162: real time      0.0163
    --------------------------------------------
      LOOP:  cpu time     19.1788: real time     19.3131

 eigenvalue-minimisations  :  5240
 total energy-change (2. order) : 0.3966798E-04  (-0.7061692E-04)
 number of electron     792.0002625 magnetization
 augmentation part      211.2441908 magnetization

 Broyden mixing:
  rms(total) = 0.47310E-02    rms(broyden)= 0.47274E-02
  rms(prec ) = 0.54613E-02
  weight for this iteration     100.00

 eigenvalues of (default mixing * dielectric matrix)
  average eigenvalue GAMMA=   1.2289
  2.7716  2.4424  1.8473  0.9063  0.9063  1.0410  1.0410  0.7931  0.6200  0.6200
  0.5286

 Free energy of the ion-electron system (eV)
  ---------------------------------------------------
  alpha Z        PSCENC =      3563.47650690
  Ewald energy   TEWEN  =    -48587.85276389
  -Hartree energ DENC   =    -18740.63307013
  -exchange      EXHF   =         0.00000000
  -V(xc)+E(xc)   XCENC  =      3312.83923304
  PAW double counting   =     89230.28579052   -89531.78405016
  entropy T*S    EENTRO =        -0.00000000
  eigenvalues    EBANDS =     -8869.32609739
  atomic energy  EATOM  =     68656.39924158
  Solvation  Ediel_sol  =         0.00000000
  ---------------------------------------------------
  free energy    TOTEN  =      -966.59520952 eV

  energy without entropy =     -966.59520952  energy(sigma->0) =     -966.59520952


--------------------------------------------------------------------------------------------------------




--------------------------------------- Iteration      1(  17)  ---------------------------------------


    POTLOK:  cpu time      0.2045: real time      0.2065
    SETDIJ:  cpu time      0.0203: real time      0.0213
     EDDAV:  cpu time     18.9177: real time     19.0513
       DOS:  cpu time      0.0010: real time      0.0010
    CHARGE:  cpu time      0.2381: real time      0.2400
    MIXING:  cpu time      0.0163: real time      0.0164
    --------------------------------------------
      LOOP:  cpu time     19.3979: real time     19.5366

 eigenvalue-minimisations  :  5296
 total energy-change (2. order) : 0.2007873E-05  (-0.1893154E-04)
 number of electron     792.0002625 magnetization
 augmentation part      211.2411441 magnetization

 Broyden mixing:
  rms(total) = 0.21280E-02    rms(broyden)= 0.21252E-02
  rms(prec ) = 0.26254E-02
  weight for this iteration     100.00

 eigenvalues of (default mixing * dielectric matrix)
  average eigenvalue GAMMA=   1.1799
  2.8663  2.3774  1.9003  1.0846  1.0846  0.8914  0.8914  0.6661  0.6661  0.6190
  0.5559  0.5559

 Free energy of the ion-electron system (eV)
  ---------------------------------------------------
  alpha Z        PSCENC =      3563.47650690
  Ewald energy   TEWEN  =    -48587.85276389
  -Hartree energ DENC   =    -18740.90370315
  -exchange      EXHF   =         0.00000000
  -V(xc)+E(xc)   XCENC  =      3312.85278070
  PAW double counting   =     89227.07662442   -89528.58167628
  entropy T*S    EENTRO =        -0.00000000
  eigenvalues    EBANDS =     -8869.06221779
  atomic energy  EATOM  =     68656.39924158
  Solvation  Ediel_sol  =         0.00000000
  ---------------------------------------------------
  free energy    TOTEN  =      -966.59520751 eV

  energy without entropy =     -966.59520751  energy(sigma->0) =     -966.59520751


--------------------------------------------------------------------------------------------------------




--------------------------------------- Iteration      1(  18)  ---------------------------------------


    POTLOK:  cpu time      0.2150: real time      0.2174
    SETDIJ:  cpu time      0.0088: real time      0.0090
     EDDAV:  cpu time     18.7556: real time     18.8858
       DOS:  cpu time      0.0010: real time      0.0010
    CHARGE:  cpu time      0.2338: real time      0.2351
    MIXING:  cpu time      0.0166: real time      0.0167
    --------------------------------------------
      LOOP:  cpu time     19.2307: real time     19.3651

 eigenvalue-minimisations  :  5240
 total energy-change (2. order) :-0.3684574E-05  (-0.2138547E-05)
 number of electron     792.0002625 magnetization
 augmentation part      211.2425562 magnetization

 Broyden mixing:
  rms(total) = 0.26009E-02    rms(broyden)= 0.26008E-02
  rms(prec ) = 0.31006E-02
  weight for this iteration     100.00

 eigenvalues of (default mixing * dielectric matrix)
  average eigenvalue GAMMA=   1.1876
  2.9322  2.3431  1.8773  1.4009  0.8472  0.8472  1.0436  0.9067  0.9067  0.6555
  0.5900  0.5900  0.4981

 Free energy of the ion-electron system (eV)
  ---------------------------------------------------
  alpha Z        PSCENC =      3563.47650690
  Ewald energy   TEWEN  =    -48587.85276389
  -Hartree energ DENC   =    -18740.86772418
  -exchange      EXHF   =         0.00000000
  -V(xc)+E(xc)   XCENC  =      3312.85041344
  PAW double counting   =     89228.83007867   -89530.34199483
[...]
      7.58456      3.79228      1.99678     0.00312 -0.01700 -2.89464 ( -0.63479  6.00000)
      7.58456      7.58456      1.99678     0.00313  0.01704 -2.89466 ( -0.63479  6.00000)
      0.00000      1.89614      0.40437     0.00088 -0.00009 -2.89454 ( -0.63483  6.00000)
      0.00000      5.68842      0.40437     0.00151  0.00000 -2.89350 ( -0.63480  6.00000)
      0.00000      9.48070      0.40437     0.00092  0.00009 -2.89452 ( -0.63483  6.00000)
      3.79228      1.89614      0.40437    -0.00057  0.00598 -2.89691 ( -0.63483  6.00000)
      3.79228      5.68842      0.40437    -0.00014 -0.00001 -2.87063 ( -0.63466  6.00000)
      3.79228      9.48070      0.40437    -0.00057 -0.00596 -2.89689 ( -0.63483  6.00000)
      7.58456      1.89614      0.40437    -0.00025 -0.00602 -2.89209 ( -0.63485  6.00000)
      7.58456      5.68842      0.40437     0.00072  0.00000 -2.90946 ( -0.63493  6.00000)
      7.58456      9.48070      0.40437    -0.00028  0.00600 -2.89211 ( -0.63485  6.00000)
      1.89614      1.89614      2.80551     0.00065  0.00035 -2.89448 ( -0.63485  6.00000)
      1.89614      5.68842      2.80551     0.02263  0.00000 -2.92820 ( -0.63478  6.00000)
      1.89614      9.48070      2.80551     0.00068 -0.00034 -2.89445 ( -0.63485  6.00000)
      5.68842      1.89614      2.80551    -0.00319 -0.00001 -2.89513 ( -0.63482  6.00000)
      5.68842      5.68842      2.80551    -0.02108  0.00001 -2.88206 ( -0.63454  6.00000)
      5.68842      9.48070      2.80551    -0.00322 -0.00001 -2.89511 ( -0.63481  6.00000)
      9.48070      1.89614      2.80551     0.00232  0.00007 -2.89449 ( -0.63483  6.00000)
      9.48070      5.68842      2.80551     0.02037 -0.00001 -2.85580 ( -0.63485  6.00000)
      9.48070      9.48070      2.80551     0.00228 -0.00007 -2.89450 ( -0.63483  6.00000)
 -----------------------------------------------------------------------------------------
    total drift (improves with k-points):   0.00017  0.00003 -0.07390




--------------------------------------------------------------------------------------------------------




 MACROSCOPIC STATIC DIELECTRIC TENSOR (including local field effects in DFT)
 ------------------------------------------------------
           6.953752    -0.000001     0.023001
          -0.000001     6.957920    -0.000006
           0.022993    -0.000002     6.371477
 ------------------------------------------------------



--------------------------------------------------------------------------------------------------------




--------------------------------------------------------------------------------------------------------




 MACROSCOPIC STATIC DIELECTRIC TENSOR (including local field effects in DFT)
 ------------------------------------------------------
           6.953752    -0.000001     0.023001
          -0.000001     6.957920    -0.000006
           0.022993    -0.000002     6.371477
 ------------------------------------------------------


 PIEZOELECTRIC TENSOR (including local field effects)  for field in x, y, z        (e  Angst)
          XX          YY          ZZ          XY          YZ          ZX
  --------------------------------------------------------------------------------
  x    -0.07201    -0.52676    -0.86969     0.00003     0.00020    -0.03691
  y    -0.00050    -0.00095     0.00092    -0.43801     0.04113     0.00147
  z    -0.05198    -0.04985     0.02634     0.00007    -0.00003     0.02018

 PIEZOELECTRIC TENSOR (including local field effects)  for field in x, y, z        (C/m^2)
          XX          YY          ZZ          XY          YZ          ZX
  --------------------------------------------------------------------------------
  x    -0.00093    -0.00679    -0.01121     0.00000     0.00000    -0.00048
  y    -0.00001    -0.00001     0.00001    -0.00565     0.00053     0.00002
  z    -0.00067    -0.00064     0.00034     0.00000    -0.00000     0.00026

 BORN EFFECTIVE CHARGES (including local field effects) (in |e|, cummulative output)
 ---------------------------------------------------------------------------------
 ion    1
    1     6.65788    -0.01622    -0.01808
    2    -0.00121     6.67102     0.00324
    3     0.00572    -0.00262     5.79576
 ion    2
    1     6.59937    -0.00001    -0.02810
    2    -0.00005     6.68651    -0.00001
    3     0.27705    -0.00002     5.80951
 ion    3
    1     6.65787     0.01621    -0.01807
    2     0.00116     6.67111    -0.00331
    3     0.00570     0.00260     5.79574
 ion    4
    1     6.66256    -0.02967    -0.00364
    2     0.00028     6.65201    -0.00095
    3    -0.00382     0.00632     5.78782
 ion    5
    1     6.57369    -0.00003     0.33089
    2    -0.00006     6.59610    -0.00004
    3     0.35318     0.00002     5.74933
 ion    6
    1     6.66251     0.02967    -0.00367
    2    -0.00028     6.65201     0.00093
    3    -0.00383    -0.00632     5.78782
 ion    7
    1     6.65770    -0.00625    -0.01561
    2     0.00114     6.64856    -0.00344
    3     0.00342    -0.00224     5.77951
 ion    8
    1     6.60054     0.00003    -0.04466
    2    -0.00008     6.62761    -0.00001
    3     0.28323    -0.00002     5.76407
 ion    9
    1     6.65771     0.00631    -0.01559
    2    -0.00121     6.64856     0.00343
    3     0.00348     0.00218     5.77954
 ion   10
    1     6.65946     0.00001     0.01280
    2     0.00002     6.65761     0.00003
    3     0.00092     0.00000     5.78827
 ion   11
    1     6.65766    -0.00888     0.02680
    2    -0.00011     6.63458    -0.03040
    3     0.00320     0.00120     5.76614
 ion   12
    1     6.65765     0.00891     0.02684
    2     0.00017     6.63454     0.03044
    3     0.00327    -0.00126     5.76614
 ion   13
    1     6.65787    -0.00005     0.00184
    2     0.00003     6.65593     0.00003
    3     0.00015     0.00005     5.78559
 ion   14
    1     6.65983    -0.03725     0.02672
    2     0.00023     6.66599     0.01080
    3     0.00021     0.01104     5.78121
 ion   15
    1     6.65978     0.03727     0.02675
    2    -0.00018     6.66599    -0.01079
    3     0.00024    -0.01099     5.78119
 ion   16
    1     6.65963    -0.00000     0.01016
    2    -0.00000     6.66120    -0.00002
    3    -0.00095    -0.00002     5.78738
 ion   17
    1     6.65739    -0.00490     0.01816
    2     0.00027     6.68605     0.02975
    3    -0.00346    -0.00236     5.81262
 ion   18
    1     6.65743     0.00488     0.01818
    2    -0.00018     6.68604    -0.02979
    3    -0.00343     0.00237     5.81266
 ion   19
    1     6.65526     0.00000    -0.00437
    2     0.00000     6.65648    -0.00002
    3     0.00151     0.00000     5.78707
 ion   20
    1     6.65660     0.00282    -0.00848
    2     0.00003     6.66031     0.00035
    3     0.00557    -0.00048     5.78662
 ion   21
    1     6.65655    -0.00288    -0.00845
    2     0.00000     6.66026    -0.00037
    3     0.00563     0.00047     5.78661
 ion   22
    1     6.66184     0.00004     0.01327
    2    -0.00001     6.65632     0.00003
    3    -0.00018     0.00000     5.78649
 ion   23
    1     6.66343     0.02121     0.04140
    2    -0.00006     6.63619     0.01607
    3    -0.00270     0.00004     5.76945
 ion   24
    1     6.66349    -0.02116     0.04147
    2     0.00006     6.63621    -0.01608
    3    -0.00263    -0.00006     5.76945
 ion   25
    1     6.66199    -0.00001     0.01368
    2     0.00002     6.66203    -0.00002
    3    -0.00148     0.00001     5.78804
 ion   26
    1     6.66377     0.02509     0.04245
    2     0.00003     6.68307    -0.01371
    3    -0.00419     0.00026     5.80111
 ion   27
    1     6.66376    -0.02505     0.04244
    2    -0.00000     6.68311     0.01369
    3    -0.00420    -0.00023     5.80114
 ion   28
    1     6.65655     0.00175     0.01027
    2     0.00000     6.66099    -0.00029
    3    -0.00004    -0.00053     5.78721
 ion   29
    1     6.64419    -0.00002     0.03385
    2    -0.00000     6.65653     0.00004
    3    -0.00067    -0.00002     5.78707
 ion   30
    1     6.65651    -0.00171     0.01026
    2     0.00002     6.66100     0.00027
    3    -0.00007     0.00048     5.78720
 ion   31
    1     6.66267     0.02262    -0.01990
    2    -0.00047     6.66801    -0.00512
    3     0.00071     0.00118     5.79155
 ion   32
    1     6.66553    -0.00001     0.20597
    2     0.00003     6.69757    -0.00002
    3    -0.00076    -0.00001     5.72123
 ion   33
    1     6.66265    -0.02263    -0.01992
    2     0.00045     6.66801     0.00509
    3     0.00074    -0.00121     5.79155
 ion   34
    1     6.66296     0.02831    -0.01853
    2     0.00040     6.65418     0.00396
    3    -0.00055    -0.00253     5.78640
 ion   35
    1     6.66877    -0.00002     0.25188
    2     0.00004     6.62289     0.00000
    3     0.00104    -0.00002     5.82142
 ion   36
    1     6.66292    -0.02836    -0.01853
    2    -0.00046     6.65419    -0.00397
    3    -0.00050     0.00251     5.78638
 ion   37
    1    -5.53378    -0.00200    -0.00823
    2     0.00657    -1.12340     0.00003
    3    -0.00856     0.00016    -2.89354
 ion   38
    1    -5.51055     0.00001    -0.01720
    2     0.00004    -1.12142    -0.00001
    3    -0.17471     0.00001    -2.89236
 ion   39
    1    -5.53380     0.00198    -0.00823
    2    -0.00655    -1.12340    -0.00002
    3    -0.00855    -0.00016    -2.89356
 ion   40
    1    -5.53477     0.00371     0.01843
    2     0.00088    -1.12550     0.00052
    3     0.00049    -0.00232    -2.89379
 ion   41
    1    -5.66035     0.00004    -0.26495
    2     0.00003    -1.07998    -0.00000
    3    -0.28068    -0.00002    -2.82697
 ion   42
    1    -5.53468    -0.00373     0.01845
    2    -0.00088    -1.12551    -0.00055
    3     0.00051     0.00232    -2.89377
 ion   43
    1    -5.53968     0.00164     0.01639
    2    -0.00196    -1.11905     0.00115
    3     0.00527     0.00166    -2.89594
 ion   44
    1    -5.28886     0.00002    -0.27391
    2     0.00002    -1.14961    -0.00000
    3    -0.28543     0.00001    -2.93542
 ion   45
    1    -5.53966    -0.00165     0.01643
    2     0.00197    -1.11905    -0.00115
    3     0.00524    -0.00166    -2.89594
 ion   46
    1    -1.11999     0.00712    -0.00354
    2    -0.00062    -5.53689    -0.00175
    3    -0.00080    -0.01040    -2.89912
 ion   47
    1    -1.12429    -0.00003    -0.02523
    2     0.00001    -5.49537     0.00001
    3    -0.01005     0.00004    -2.89386
 ion   48
    1    -1.11999    -0.00713    -0.00353
    2     0.00064    -5.53688     0.00167
    3    -0.00078     0.01041    -2.89910
 ion   49
    1    -1.12337     0.00466    -0.00014
    2     0.00258    -5.53630    -0.00038
    3    -0.00231     0.00005    -2.89329
 ion   50
    1    -1.11808    -0.00002    -0.06121
    2     0.00001    -5.54908     0.00001
    3    -0.09703    -0.00001    -2.86543
 ion   51
    1    -1.12334    -0.00468    -0.00011
    2    -0.00261    -5.53631     0.00032
    3    -0.00231    -0.00010    -2.89329
 ion   52
    1    -1.12620     0.00454    -0.00231
    2    -0.00062    -5.53634     0.00146
    3    -0.00021     0.01100    -2.89016
 ion   53
    1    -1.11973    -0.00002    -0.01860
    2    -0.00001    -5.57856    -0.00003
    3    -0.00906    -0.00001    -2.89685
 ion   54
    1    -1.12619    -0.00458    -0.00232
    2     0.00063    -5.53630    -0.00147
    3    -0.00023    -0.01098    -2.89016
 ion   55
    1    -1.11933     0.00003    -0.00229
    2    -0.00000    -5.53668     0.00001
    3    -0.00008    -0.00001    -2.89804
 ion   56
    1    -1.12489     0.05001    -0.00534
    2    -0.00935    -5.55426     0.03276
    3    -0.01018    -0.01329    -2.87794
 ion   57
    1    -1.12490    -0.04998    -0.00537
    2     0.00932    -5.55429    -0.03275
    3    -0.01022     0.01334    -2.87795
 ion   58
    1    -1.12282     0.00000    -0.00417
    2    -0.00000    -5.53520     0.00000
    3    -0.00238    -0.00002    -2.89274
 ion   59
    1    -1.11792     0.08234    -0.01079
    2     0.13307    -5.50624    -0.01361
    3    -0.01792    -0.01133    -2.89230
 ion   60
    1    -1.11791    -0.08228    -0.01080
    2    -0.13305    -5.50623     0.01364
    3    -0.01793     0.01133    -2.89231
 ion   61
    1    -1.12628     0.00001    -0.00123
    2     0.00003    -5.53787    -0.00001
    3     0.00034     0.00002    -2.89050
 ion   62
    1    -1.11387     0.03129     0.00228
    2    -0.01045    -5.51564    -0.03252
    3    -0.00977     0.02041    -2.91169
 ion   63
    1    -1.11388    -0.03130     0.00228
    2     0.01046    -5.51560     0.03256
    3    -0.00975    -0.02035    -2.91169
 ion   64
    1    -5.53566    -0.00001     0.00356
    2    -0.00001    -1.12221     0.00001
    3    -0.00178     0.00001    -2.89334
 ion   65
    1    -5.53374    -0.00074     0.00910
    2     0.00399    -1.12342    -0.00005
    3    -0.00742     0.00018    -2.89375
 ion   66
    1    -5.53372     0.00076     0.00902
    2    -0.00403    -1.12339     0.00001
    3    -0.00750    -0.00021    -2.89378
 ion   67
    1    -5.53771     0.00001    -0.00843
    2     0.00000    -1.12277    -0.00000
    3    -0.00007     0.00001    -2.89147
 ion   68
    1    -5.52498     0.00369    -0.02397
    2    -0.00390    -1.12340     0.00122
    3    -0.00004     0.00043    -2.88514
 ion   69
    1    -5.52499    -0.00371    -0.02404
    2     0.00387    -1.12342    -0.00123
    3    -0.00007    -0.00044    -2.88516
 ion   70
    1    -5.53679    -0.00000    -0.00806
    2    -0.00000    -1.12152     0.00002
    3     0.00081    -0.00001    -2.89640
 ion   71
    1    -5.54765     0.00260    -0.02159
    2    -0.00277    -1.12421    -0.00176
    3     0.00724    -0.00317    -2.90001
 ion   72
    1    -5.54764    -0.00254    -0.02160
    2     0.00277    -1.12423     0.00177
    3     0.00726     0.00318    -2.90003
 ion   73
    1    -5.53687    -0.00000    -0.00710
    2     0.00001    -1.12306     0.00001
    3    -0.00035    -0.00001    -2.89179
 ion   74
    1    -5.53670    -0.00185    -0.01742
    2     0.00226    -1.12174     0.00158
    3    -0.00160    -0.00140    -2.88719
 ion   75
    1    -5.53677     0.00185    -0.01751
    2    -0.00230    -1.12173    -0.00160
    3    -0.00168     0.00142    -2.88718
 ion   76
    1    -5.53972     0.00000     0.00050
    2    -0.00002    -1.12220    -0.00000
    3     0.00081    -0.00001    -2.89280
 ion   77
    1    -5.54259    -0.00052    -0.00287
    2    -0.00445    -1.12367    -0.00062
    3     0.00353    -0.00004    -2.89224
 ion   78
    1    -5.54259     0.00049    -0.00292
    2     0.00443    -1.12365     0.00066
    3     0.00350     0.00003    -2.89224
 ion   79
    1    -5.53522     0.00002    -0.00670
    2     0.00001    -1.12170     0.00003
    3    -0.00049     0.00001    -2.89574
 ion   80
    1    -5.53380    -0.00250    -0.01589
    2     0.00197    -1.12505    -0.00164
    3    -0.00133     0.00126    -2.90006
 ion   81
    1    -5.53381     0.00249    -0.01590
    2    -0.00198    -1.12504     0.00165
    3    -0.00134    -0.00127    -2.90005
 ion   82
    1    -1.12166    -0.00001    -0.00101
    2    -0.00004    -5.53768     0.00004
    3    -0.00159     0.00002    -2.89321
 ion   83
    1    -1.12111     0.00412    -0.00297
    2    -0.00336    -5.53681    -0.00043
    3    -0.00518     0.00039    -2.89336
 ion   84
    1    -1.12109    -0.00410    -0.00298
    2     0.00333    -5.53682     0.00043
    3    -0.00519    -0.00035    -2.89336
 ion   85
    1    -1.12024     0.00002    -0.00163
    2     0.00003    -5.53978     0.00002
    3     0.00067     0.00002    -2.89519
 ion   86
    1    -1.11713    -0.04267    -0.01744
    2     0.00182    -5.55149    -0.02090
    3     0.00343     0.02169    -2.89114
 ion   87
    1    -1.11714     0.04268    -0.01748
    2    -0.00185    -5.55151     0.02093
    3     0.00341    -0.02167    -2.89114
 ion   88
    1    -1.12723     0.00001    -0.00264
    2    -0.00001    -5.53549    -0.00000
    3     0.00067    -0.00001    -2.89229
 ion   89
    1    -1.13115    -0.05299    -0.02110
    2     0.00219    -5.52314     0.01862
    3     0.00312    -0.01700    -2.89396
 ion   90
    1    -1.13116     0.05304    -0.02110
    2    -0.00218    -5.52320    -0.01859
    3     0.00313     0.01704    -2.89398
 ion   91
    1    -1.12196     0.00024     0.00058
    2    -0.00045    -5.53654     0.00006
    3     0.00088    -0.00009    -2.89385
 ion   92
    1    -1.12140     0.00001    -0.00328
    2    -0.00000    -5.53696     0.00002
    3     0.00151     0.00000    -2.89281
 ion   93
    1    -1.12194    -0.00025     0.00062
    2     0.00048    -5.53656    -0.00004
    3     0.00092     0.00009    -2.89384
 ion   94
    1    -1.12107    -0.00797    -0.00324
    2     0.00030    -5.53423     0.00241
    3    -0.00057     0.00598    -2.89622
 ion   95
    1    -1.11014    -0.00002    -0.04879
    2     0.00001    -5.50014    -0.00000
    3    -0.00015    -0.00001    -2.86994
 ion   96
    1    -1.12108     0.00790    -0.00320
    2    -0.00029    -5.53423    -0.00239
    3    -0.00057    -0.00596    -2.89621
 ion   97
    1    -1.12654    -0.01016    -0.00387
    2    -0.00004    -5.53895    -0.00211
    3    -0.00025    -0.00602    -2.89140
 ion   98
    1    -1.13671    -0.00002    -0.05937
    2     0.00001    -5.57118    -0.00000
    3     0.00072     0.00000    -2.90877
 ion   99
    1    -1.12653     0.01012    -0.00389
    2     0.00004    -5.53896     0.00214
    3    -0.00028     0.00600    -2.89143
 ion  100
    1    -5.53680    -0.00310     0.01218
    2     0.00140    -1.12605     0.00181
    3     0.00064     0.00035    -2.89380
 ion  101
    1    -5.57178     0.00001     0.04808
    2     0.00001    -1.12180    -0.00000
    3     0.02263     0.00000    -2.92751
 ion  102
    1    -5.53676     0.00309     0.01224
    2    -0.00141    -1.12605    -0.00180
    3     0.00068    -0.00034    -2.89377
 ion  103
    1    -5.54147    -0.00193    -0.00085
    2    -0.00242    -1.12335     0.00038
    3    -0.00319    -0.00001    -2.89444
 ion  104
    1    -5.53755    -0.00003    -0.04968
    2    -0.00001    -1.12196     0.00001
    3    -0.02108     0.00001    -2.88138
 ion  105
    1    -5.54139     0.00194    -0.00087
    2     0.00244    -1.12334    -0.00038
    3    -0.00322    -0.00001    -2.89443
 ion  106
    1    -5.53338    -0.00348     0.01109
    2     0.00084    -1.12127    -0.00140
    3     0.00232     0.00007    -2.89381
 ion  107
    1    -5.47807    -0.00001     0.03609
    2    -0.00000    -1.12270     0.00000
    3     0.02036    -0.00001    -2.85512
 ion  108
    1    -5.53344     0.00348     0.01108
    2    -0.00083    -1.12128     0.00140
    3     0.00228    -0.00007    -2.89382


--------------------------------------------------------------------------------------------------------


     LOOP+:  cpu time   2013.3123: real time   2052.4829
    4ORBIT:  cpu time      0.0000: real time      0.0000

 total amount of memory used by VASP MPI-rank0   266717. kBytes
=======================================================================

   base      :      30000. kBytes
   nonlr-proj:      19548. kBytes
   fftplans  :      10927. kBytes
   grid      :      23181. kBytes
   one-center:       1679. kBytes
   wavefun   :     181382. kBytes



 General timing and accounting informations for this job:
 ========================================================

                  Total CPU time used (sec):     2027.133
                            User time (sec):     1958.649
                          System time (sec):       68.484
                         Elapsed time (sec):     2086.962

                   Maximum memory used (kb):     1087692.
                   Average memory used (kb):          N/A

                          Minor page faults:      3935970
                          Major page faults:            1
                 Voluntary context switches:       127599
