 vasp.6.3.0 20Jan22 (build Mar 29 2022 16:24:06) complex

 executed on             Bridges2 date 2023.01.10  17:44:42
 running on   32 total cores
 distrk:  each k-point on    4 cores,    8 groups
 distr:  one band on NCORE=   1 cores,    4 groups


--------------------------------------------------------------------------------------------------------


 INCAR:
   ICHARG = 2
   LWAVE = .FALSE.
   LCHARG = .FALSE.
   LVTOT = .FALSE.
   NCORE = 1
   KPAR = 8
   EDIFF = 1E-7
   NELM = 80
   PREC = Normal
   LREAL = Auto
   NELMIN = 4
   ENCUT = 400.0 eV
   ISPIN = 1
   ISMEAR = 0
   SIGMA = 0.10
   NSW = 0
   LEPSILON = .TRUE.
   LPEAD = .TRUE.
   ISYM = 0

 POTCAR:    PAW_PBE Ti_pv 07Sep2000
 POTCAR:    PAW_PBE O 08Apr2002
 -----------------------------------------------------------------------------
|                                                                             |
|           W    W    AA    RRRRR   N    N  II  N    N   GGGG   !!!           |
|           W    W   A  A   R    R  NN   N  II  NN   N  G    G  !!!           |
|           W    W  A    A  R    R  N N  N  II  N N  N  G       !!!           |
|           W WW W  AAAAAA  RRRRR   N  N N  II  N  N N  G  GGG   !            |
|           WW  WW  A    A  R   R   N   NN  II  N   NN  G    G                |
|           W    W  A    A  R    R  N    N  II  N    N   GGGG   !!!           |
|                                                                             |
|     For optimal performance we recommend to set                             |
|       NCORE = 2 up to number-of-cores-per-socket                            |
|     NCORE specifies how many cores store one orbital (NPAR=cpu/NCORE).      |
|     This setting can greatly improve the performance of VASP for DFT.       |
|     The default, NCORE=1 might be grossly inefficient on modern             |
|     multi-core architectures or massively parallel machines. Do your        |
|     own testing! More info at https://www.vasp.at/wiki/index.php/NCORE      |
|     Unfortunately you need to use the default for GW and RPA                |
|     calculations (for HF NCORE is supported but not extensively tested      |
|     yet).                                                                   |
|                                                                             |
 -----------------------------------------------------------------------------

 POTCAR:    PAW_PBE Ti_pv 07Sep2000
   VRHFIN =Ti: d3 s1
   LEXCH  = PE
   EATOM  =  1042.5995 eV,   76.6289 Ry

   TITEL  = PAW_PBE Ti_pv 07Sep2000
   LULTRA =        F    use ultrasoft PP ?
   IUNSCR =        1    unscreen: 0-lin 1-nonlin 2-no
   RPACOR =    2.200    partial core radius
   POMASS =   47.880; ZVAL   =   10.000    mass and valenz
   RCORE  =    2.500    outmost cutoff radius
   RWIGS  =    2.500; RWIGS  =    1.323    wigner-seitz radius (au A)
   ENMAX  =  222.335; ENMIN  =  166.751 eV
   RCLOC  =    1.701    cutoff for local pot
   LCOR   =        T    correct aug charges
   LPAW   =        T    paw PP
   EAUG   =  482.848
   DEXC   =    0.000
   RMAX   =    2.564    core radius for proj-oper
   RAUG   =    1.300    factor for augmentation sphere
   RDEP   =    2.538    radius for radial grids
   RDEPT  =    1.952    core radius for aug-charge

   Atomic configuration
    8 entries
     n  l   j            E        occ.
     1  0  0.50     -4865.3608   2.0000
     2  0  0.50      -533.1368   2.0000
     2  1  1.50      -440.5031   6.0000
     3  0  0.50       -59.3186   2.0000
     3  1  1.50       -35.7012   6.0000
     3  2  2.50        -1.9157   3.0000
     4  0  0.50        -3.7291   1.0000
     4  3  2.50        -1.3606   0.0000
   Description
     l       E           TYP  RCUT    TYP  RCUT
     1    -35.7012140     23  2.300
     1     -1.3605826     23  2.300
     2     -1.9156996     23  2.500
     2     -0.4063033     23  2.500
     0     -3.7290856     23  2.500
     0     20.4087390     23  2.500
  local pseudopotential read in
  partial core-charges read in
  partial kinetic energy density read in
  atomic valenz-charges read in
  non local Contribution for L=           1  read in
    real space projection operators read in
  non local Contribution for L=           1  read in
    real space projection operators read in
  non local Contribution for L=           2  read in
    real space projection operators read in
  non local Contribution for L=           2  read in
    real space projection operators read in
  non local Contribution for L=           0  read in
    real space projection operators read in
  non local Contribution for L=           0  read in
    real space projection operators read in
    PAW grid and wavefunctions read in

   number of l-projection  operators is LMAX  =           6
   number of lm-projection operators is LMMAX =          18

 POTCAR:    PAW_PBE O 08Apr2002
   VRHFIN =O: s2p4
   LEXCH  = PE
   EATOM  =   432.3788 eV,   31.7789 Ry

   TITEL  = PAW_PBE O 08Apr2002
   LULTRA =        F    use ultrasoft PP ?
   IUNSCR =        1    unscreen: 0-lin 1-nonlin 2-no
   RPACOR =    1.200    partial core radius
   POMASS =   16.000; ZVAL   =    6.000    mass and valenz
   RCORE  =    1.520    outmost cutoff radius
   RWIGS  =    1.550; RWIGS  =    0.820    wigner-seitz radius (au A)
   ENMAX  =  400.000; ENMIN  =  300.000 eV
   ICORE  =        2    local potential
   LCOR   =        T    correct aug charges
   LPAW   =        T    paw PP
   EAUG   =  605.392
   DEXC   =    0.000
   RMAX   =    1.553    core radius for proj-oper
   RAUG   =    1.300    factor for augmentation sphere
   RDEP   =    1.550    radius for radial grids
   RDEPT  =    1.329    core radius for aug-charge

   Atomic configuration
    4 entries
     n  l   j            E        occ.
     1  0  0.50      -514.6923   2.0000
     2  0  0.50       -23.9615   2.0000
     2  1  0.50        -9.0305   4.0000
     3  2  1.50        -9.5241   0.0000
   Description
     l       E           TYP  RCUT    TYP  RCUT
     0    -23.9615318     23  1.200
     0     -9.5240782     23  1.200
     1     -9.0304911     23  1.520
     1      8.1634956     23  1.520
     2     -9.5240782      7  1.500
  local pseudopotential read in
  partial core-charges read in
  partial kinetic energy density read in
  kinetic energy density of atom read in
  atomic valenz-charges read in
  non local Contribution for L=           0  read in
    real space projection operators read in
  non local Contribution for L=           0  read in
    real space projection operators read in
  non local Contribution for L=           1  read in
    real space projection operators read in
  non local Contribution for L=           1  read in
    real space projection operators read in
    PAW grid and wavefunctions read in

   number of l-projection  operators is LMAX  =           4
   number of lm-projection operators is LMMAX =           8

 Optimization of the real space projectors (new method)

 maximal supplied QI-value         = 15.12
 optimisation between [QCUT,QGAM] = [ 10.13, 20.41] = [ 28.73,116.64] Ry
 Optimized for a Real-space Cutoff    1.51 Angstroem

   l    n(q)    QCUT    max X(q) W(low)/X(q) W(high)/X(q)  e(spline)
   1      9    10.129     4.216    0.12E-04    0.72E-04    0.60E-07
   1      9    10.129     5.422    0.84E-04    0.21E-03    0.15E-06
   2      8    10.129    72.084    0.33E-03    0.35E-04    0.17E-06
   2      8    10.129    65.965    0.33E-03    0.37E-04    0.17E-06
   0      9    10.129    41.531    0.17E-03    0.19E-03    0.81E-07
   0      9    10.129    16.290    0.12E-03    0.14E-03    0.64E-07
 Optimization of the real space projectors (new method)

 maximal supplied QI-value         = 24.76
 optimisation between [QCUT,QGAM] = [ 10.15, 20.30] = [ 28.85,115.39] Ry
 Optimized for a Real-space Cutoff    1.38 Angstroem

   l    n(q)    QCUT    max X(q) W(low)/X(q) W(high)/X(q)  e(spline)
   0      8    10.150    20.381    0.22E-03    0.32E-03    0.29E-06
   0      8    10.150    15.268    0.23E-03    0.35E-03    0.30E-06
   1      8    10.150     5.964    0.46E-03    0.53E-03    0.21E-06
   1      8    10.150     5.382    0.38E-03    0.45E-03    0.19E-06
  PAW_PBE Ti_pv 07Sep2000               :
 energy of atom  1       EATOM=-1042.5995
 kinetic energy error for atom=    0.0037 (will be added to EATOM!!)
  PAW_PBE O 08Apr2002                   :
 energy of atom  2       EATOM= -432.3788
 kinetic energy error for atom=    0.1156 (will be added to EATOM!!)


 POSCAR: Ti4 O8
  positions in cartesian coordinates
  No initial velocities read in
 exchange correlation table for  LEXCH =        8
   RHO(1)=    0.500       N(1)  =     2000
   RHO(2)=  100.500       N(2)  =     4000



--------------------------------------------------------------------------------------------------------


 ion  position               nearest neighbor table
   1  0.167  0.167  0.500-  56 1.94  55 1.94  40 1.94  37 1.94 100 2.00  46 2.00  31 3.06  28 3.06
                            11 3.06  10 3.06
   2  0.167  0.500  0.500-  56 1.94  41 1.94  38 1.94  57 1.94 101 2.00  47 2.00  11 3.06  32 3.06
                            29 3.06  12 3.06
   3  0.167  0.833  0.500-  57 1.94  42 1.94  39 1.94  55 1.94 102 2.00  48 2.00  12 3.06  33 3.06
                            30 3.06  10 3.06
   4  0.500  0.167  0.500-  40 1.94  59 1.94  58 1.94  43 1.94 103 2.00  49 2.00  31 3.06  14 3.06
                            13 3.06  34 3.06
   5  0.500  0.500  0.490- 104 1.90  41 1.92  44 1.92  59 1.96  60 1.96  50 2.10  32 2.98  35 2.98
                            14 3.14  15 3.14
   6  0.500  0.833  0.500-  60 1.94  42 1.94  58 1.94  45 1.94 105 2.00  51 2.00  15 3.06  33 3.06
                            13 3.06  36 3.06
   7  0.833  0.167  0.500-  43 1.94  62 1.94  61 1.94  37 1.94 106 2.00  52 2.00  34 3.06  17 3.06
                            16 3.06  28 3.06
   8  0.833  0.500  0.500-  44 1.94  62 1.94  63 1.94  38 1.94 107 2.00  53 2.00  35 3.06  17 3.06
                            29 3.06  18 3.06
   9  0.833  0.833  0.500-  63 1.94  45 1.94  61 1.94  39 1.94 108 2.00  54 2.00  36 3.06  18 3.06
                            30 3.06  16 3.06
  10  0.167  0.000  0.750-  67 1.94  64 1.94  46 1.94  48 1.94  73 2.00  55 2.00  22 3.06  19 3.06
                             1 3.06   3 3.06
  11  0.167  0.333  0.750-  47 1.94  46 1.94  68 1.94  65 1.94  74 2.00  56 2.00   2 3.06  23 3.06
                            20 3.06   1 3.06
  12  0.167  0.667  0.750-  48 1.94  69 1.94  66 1.94  47 1.94  75 2.00  57 2.00   3 3.06  24 3.06
                            21 3.06   2 3.06
  13  0.500  0.000  0.750-  67 1.94  49 1.94  51 1.94  70 1.94  76 2.00  58 2.00  22 3.06   4 3.06
                            25 3.06   6 3.06
  14  0.500  0.333  0.750-  50 1.94  68 1.94  49 1.94  71 1.94  77 2.00  59 2.00  23 3.06   4 3.06
                            26 3.06   5 3.14
  15  0.500  0.667  0.750-  51 1.94  69 1.94  50 1.94  72 1.94  78 2.00  60 2.00   6 3.06  24 3.06
                            27 3.06   5 3.14
  16  0.833  0.000  0.750-  70 1.94  52 1.94  64 1.94  54 1.94  79 2.00  61 2.00  25 3.06   7 3.06
                            19 3.06   9 3.06
  17  0.833  0.333  0.750-  71 1.94  53 1.94  52 1.94  65 1.94  80 2.00  62 2.00  26 3.06   8 3.06
                             7 3.06  20 3.06
  18  0.833  0.667  0.750-  54 1.94  72 1.94  66 1.94  53 1.94  81 2.00  63 2.00  27 3.06   9 3.06
                            21 3.06   8 3.06
  19  0.000  0.000  0.000-  73 1.94  91 1.94  79 1.94  93 1.94  82 2.00  64 2.00  10 3.06  28 3.06
                            16 3.06  30 3.06
  20  0.000  0.333  0.000-  92 1.94  74 1.94  91 1.94  80 1.94  83 2.00  65 2.00  29 3.06  11 3.06
                            28 3.06  17 3.06
  21  0.000  0.667  0.000-  93 1.94  75 1.94  81 1.94  92 1.94  84 2.00  66 2.00  30 3.06  12 3.06
                            18 3.06  29 3.06
  22  0.333  0.000  0.000-  76 1.94  73 1.94  94 1.94  96 1.94  85 2.00  67 2.00  13 3.06  10 3.06
                            31 3.06  33 3.06
  23  0.333  0.333  0.000-  77 1.94  95 1.94  74 1.94  94 1.94  86 2.00  68 2.00  14 3.06  32 3.06
                            11 3.06  31 3.06
  24  0.333  0.667  0.000-  96 1.94  78 1.94  75 1.94  95 1.94  87 2.00  69 2.00  33 3.06  15 3.06
                            12 3.06  32 3.06
  25  0.667  0.000  0.000-  79 1.94  97 1.94  76 1.94  99 1.94  88 2.00  70 2.00  16 3.06  34 3.06
                            13 3.06  36 3.06
  26  0.667  0.333  0.000-  80 1.94  98 1.94  97 1.94  77 1.94  89 2.00  71 2.00  17 3.06  35 3.06
                            34 3.06  14 3.06
  27  0.667  0.667  0.000-  81 1.94  99 1.94  78 1.94  98 1.94  90 2.00  72 2.00  18 3.06  36 3.06
                            15 3.06  35 3.06
  28  0.000  0.167  0.250-  83 1.94  82 1.94 100 1.94 106 1.94  37 2.00  91 2.00   1 3.06  20 3.06
                            19 3.06   7 3.06
  29  0.000  0.500  0.250-  83 1.94 101 1.94  84 1.94 107 1.94  38 2.00  92 2.00  20 3.06   2 3.06
                             8 3.06  21 3.06
  30  0.000  0.833  0.250-  84 1.94 102 1.94  82 1.94 108 1.94  39 2.00  93 2.00  21 3.06   3 3.06
                             9 3.06  19 3.06
  31  0.333  0.167  0.250- 103 1.94  86 1.94  85 1.94 100 1.94  40 2.00  94 2.00   4 3.06   1 3.06
                            23 3.06  22 3.06
  32  0.333  0.500  0.250-  86 1.94 104 1.94 101 1.94  87 1.94  41 2.00  95 2.00   5 2.98  23 3.06
                             2 3.06  24 3.06
  33  0.333  0.833  0.250-  87 1.94 105 1.94 102 1.94  85 1.94  42 2.00  96 2.00  24 3.06   6 3.06
                             3 3.06  22 3.06
  34  0.667  0.167  0.250- 106 1.94  89 1.94  88 1.94 103 1.94  43 2.00  97 2.00   7 3.06  26 3.06
                            25 3.06   4 3.06
  35  0.667  0.500  0.250- 107 1.94  89 1.94  90 1.94 104 1.94  44 2.00  98 2.00   5 2.98   8 3.06
                            26 3.06  27 3.06
  36  0.667  0.833  0.250-  90 1.94 108 1.94  88 1.94 105 1.94  45 2.00  99 2.00   9 3.06  27 3.06
                            25 3.06   6 3.06
  37  0.000  0.167  0.458-   1 1.94   7 1.94  28 2.00
  38  0.000  0.500  0.458-   2 1.94   8 1.94  29 2.00
  39  0.000  0.833  0.458-   3 1.94   9 1.94  30 2.00
  40  0.333  0.167  0.458-   4 1.94   1 1.94  31 2.00
  41  0.333  0.500  0.458-   5 1.92   2 1.94  32 2.00
  42  0.333  0.833  0.458-   6 1.94   3 1.94  33 2.00
  43  0.667  0.167  0.458-   7 1.94   4 1.94  34 2.00
  44  0.667  0.500  0.458-   5 1.92   8 1.94  35 2.00
  45  0.667  0.833  0.458-   9 1.94   6 1.94  36 2.00
  46  0.167  0.167  0.708-  11 1.94  10 1.94   1 2.00
  47  0.167  0.500  0.708-  11 1.94  12 1.94   2 2.00
  48  0.167  0.833  0.708-  12 1.94  10 1.94   3 2.00
  49  0.500  0.167  0.708-  14 1.94  13 1.94   4 2.00
  50  0.500  0.500  0.708-  14 1.94  15 1.94   5 2.10
  51  0.500  0.833  0.708-  15 1.94  13 1.94   6 2.00
  52  0.833  0.167  0.708-  17 1.94  16 1.94   7 2.00
  53  0.833  0.500  0.708-  17 1.94  18 1.94   8 2.00
  54  0.833  0.833  0.708-  18 1.94  16 1.94   9 2.00
  55  0.167  0.000  0.542-   1 1.94   3 1.94  10 2.00
  56  0.167  0.333  0.542-   2 1.94   1 1.94  11 2.00
  57  0.167  0.667  0.542-   3 1.94   2 1.94  12 2.00
  58  0.500  0.000  0.542-   4 1.94   6 1.94  13 2.00
  59  0.500  0.333  0.542-   4 1.94   5 1.96  14 2.00
  60  0.500  0.667  0.542-   6 1.94   5 1.96  15 2.00
  61  0.833  0.000  0.542-   7 1.94   9 1.94  16 2.00
  62  0.833  0.333  0.542-   8 1.94   7 1.94  17 2.00
  63  0.833  0.667  0.542-   9 1.94   8 1.94  18 2.00
  64  0.000  0.000  0.792-  10 1.94  16 1.94  19 2.00
  65  0.000  0.333  0.792-  11 1.94  17 1.94  20 2.00
  66  0.000  0.667  0.792-  12 1.94  18 1.94  21 2.00
  67  0.333  0.000  0.792-  13 1.94  10 1.94  22 2.00
  68  0.333  0.333  0.792-  14 1.94  11 1.94  23 2.00
  69  0.333  0.667  0.792-  15 1.94  12 1.94  24 2.00
  70  0.667  0.000  0.792-  16 1.94  13 1.94  25 2.00
  71  0.667  0.333  0.792-  17 1.94  14 1.94  26 2.00
  72  0.667  0.667  0.792-  18 1.94  15 1.94  27 2.00
  73  0.167  0.000  0.958-  22 1.94  19 1.94  10 2.00
  74  0.167  0.333  0.958-  23 1.94  20 1.94  11 2.00
  75  0.167  0.667  0.958-  24 1.94  21 1.94  12 2.00
  76  0.500  0.000  0.958-  22 1.94  25 1.94  13 2.00
  77  0.500  0.333  0.958-  23 1.94  26 1.94  14 2.00
  78  0.500  0.667  0.958-  24 1.94  27 1.94  15 2.00
  79  0.833  0.000  0.958-  25 1.94  19 1.94  16 2.00
  80  0.833  0.333  0.958-  26 1.94  20 1.94  17 2.00
  81  0.833  0.667  0.958-  27 1.94  21 1.94  18 2.00
  82  0.000  0.000  0.208-  28 1.94  30 1.94  19 2.00
  83  0.000  0.333  0.208-  29 1.94  28 1.94  20 2.00
  84  0.000  0.667  0.208-  30 1.94  29 1.94  21 2.00
  85  0.333  0.000  0.208-  31 1.94  33 1.94  22 2.00
  86  0.333  0.333  0.208-  32 1.94  31 1.94  23 2.00
  87  0.333  0.667  0.208-  33 1.94  32 1.94  24 2.00
  88  0.667  0.000  0.208-  34 1.94  36 1.94  25 2.00
  89  0.667  0.333  0.208-  35 1.94  34 1.94  26 2.00
  90  0.667  0.667  0.208-  36 1.94  35 1.94  27 2.00
  91  0.000  0.167  0.042-  20 1.94  19 1.94  28 2.00
  92  0.000  0.500  0.042-  20 1.94  21 1.94  29 2.00
  93  0.000  0.833  0.042-  21 1.94  19 1.94  30 2.00
  94  0.333  0.167  0.042-  23 1.94  22 1.94  31 2.00
  95  0.333  0.500  0.042-  23 1.94  24 1.94  32 2.00
  96  0.333  0.833  0.042-  24 1.94  22 1.94  33 2.00
  97  0.667  0.167  0.042-  26 1.94  25 1.94  34 2.00
  98  0.667  0.500  0.042-  26 1.94  27 1.94  35 2.00
  99  0.667  0.833  0.042-  27 1.94  25 1.94  36 2.00
 100  0.167  0.167  0.292-  31 1.94  28 1.94   1 2.00
 101  0.167  0.500  0.292-  32 1.94  29 1.94   2 2.00
 102  0.167  0.833  0.292-  33 1.94  30 1.94   3 2.00
 103  0.500  0.167  0.292-  31 1.94  34 1.94   4 2.00
 104  0.500  0.500  0.292-   5 1.90  32 1.94  35 1.94
 105  0.500  0.833  0.292-  33 1.94  36 1.94   6 2.00
 106  0.833  0.167  0.292-  34 1.94  28 1.94   7 2.00
 107  0.833  0.500  0.292-  35 1.94  29 1.94   8 2.00
 108  0.833  0.833  0.292-  36 1.94  30 1.94   9 2.00


IMPORTANT INFORMATION: All symmetrisations will be switched off!
NOSYMM: (Re-)initialisation of all symmetry stuff for point group C_1.


----------------------------------------------------------------------------------------

                                     Primitive cell

  volume of cell :    1243.1447

  direct lattice vectors                    reciprocal lattice vectors
    11.376843452  0.000000000  0.000000000     0.087897843  0.000000000  0.000000000
     0.000000000 11.376843452  0.000000000     0.000000000  0.087897843  0.000000000
     0.000000000  0.000000000  9.604574204     0.000000000  0.000000000  0.104117057

  length of vectors
    11.376843452 11.376843452  9.604574204     0.087897843  0.087897843  0.104117057

  position of ions in fractional coordinates (direct lattice)
     0.166666672  0.166666672  0.500000000
     0.166666672  0.500000000  0.500000000
     0.166666672  0.833333313  0.500000000
     0.500000000  0.166666672  0.500000000
     0.500000000  0.500000000  0.489588294
     0.500000000  0.833333313  0.500000000
     0.833333313  0.166666672  0.500000000
     0.833333313  0.500000000  0.500000000
     0.833333313  0.833333313  0.500000000
     0.166666672  0.000000000  0.750000000
     0.166666672  0.333333343  0.750000000
     0.166666672  0.666666687  0.750000000
     0.500000000  0.000000000  0.750000000
     0.500000000  0.333333343  0.750000000
     0.500000000  0.666666687  0.750000000
     0.833333313  0.000000000  0.750000000
     0.833333313  0.333333343  0.750000000
     0.833333313  0.666666687  0.750000000
     0.000000000  0.000000000  0.000000000
     0.000000000  0.333333343  0.000000000
     0.000000000  0.666666687  0.000000000
     0.333333343  0.000000000  0.000000000
     0.333333343  0.333333343  0.000000000
     0.333333343  0.666666687  0.000000000
     0.666666687  0.000000000  0.000000000
     0.666666687  0.333333343  0.000000000
     0.666666687  0.666666687  0.000000000
     0.000000000  0.166666672  0.250000000
     0.000000000  0.500000000  0.250000000
     0.000000000  0.833333313  0.250000000
     0.333333343  0.166666672  0.250000000
     0.333333343  0.500000000  0.250000000
     0.333333343  0.833333313  0.250000000
     0.666666687  0.166666672  0.250000000
     0.666666687  0.500000000  0.250000000
     0.666666687  0.833333313  0.250000000
     0.000000000  0.166666672  0.457898587
     0.000000000  0.500000000  0.457898587
     0.000000000  0.833333313  0.457898587
     0.333333343  0.166666672  0.457898587
     0.333333343  0.500000000  0.457898587
     0.333333343  0.833333313  0.457898587
     0.666666687  0.166666672  0.457898587
     0.666666687  0.500000000  0.457898587
     0.666666687  0.833333313  0.457898587
     0.166666672  0.166666672  0.707898617
     0.166666672  0.500000000  0.707898617
     0.166666672  0.833333313  0.707898617
     0.500000000  0.166666672  0.707898617
     0.500000000  0.500000000  0.707898617
     0.500000000  0.833333313  0.707898617
     0.833333313  0.166666672  0.707898617
     0.833333313  0.500000000  0.707898617
     0.833333313  0.833333313  0.707898617
     0.166666672  0.000000000  0.542101383
     0.166666672  0.333333343  0.542101383
     0.166666672  0.666666687  0.542101383
     0.500000000  0.000000000  0.542101383
     0.500000000  0.333333343  0.542101383
     0.500000000  0.666666687  0.542101383
     0.833333313  0.000000000  0.542101383
     0.833333313  0.333333343  0.542101383
     0.833333313  0.666666687  0.542101383
     0.000000000  0.000000000  0.792101383
     0.000000000  0.333333343  0.792101383
     0.000000000  0.666666687  0.792101383
     0.333333343  0.000000000  0.792101383
     0.333333343  0.333333343  0.792101383
     0.333333343  0.666666687  0.792101383
     0.666666687  0.000000000  0.792101383
     0.666666687  0.333333343  0.792101383
     0.666666687  0.666666687  0.792101383
     0.166666672  0.000000000  0.957898617
     0.166666672  0.333333343  0.957898617
     0.166666672  0.666666687  0.957898617
     0.500000000  0.000000000  0.957898617
     0.500000000  0.333333343  0.957898617
     0.500000000  0.666666687  0.957898617
     0.833333313  0.000000000  0.957898617
     0.833333313  0.333333343  0.957898617
     0.833333313  0.666666687  0.957898617
     0.000000000  0.000000000  0.207898602
     0.000000000  0.333333343  0.207898602
     0.000000000  0.666666687  0.207898602
     0.333333343  0.000000000  0.207898602
     0.333333343  0.333333343  0.207898602
     0.333333343  0.666666687  0.207898602
     0.666666687  0.000000000  0.207898602
     0.666666687  0.333333343  0.207898602
     0.666666687  0.666666687  0.207898602
     0.000000000  0.166666672  0.042101406
     0.000000000  0.500000000  0.042101406
     0.000000000  0.833333313  0.042101406
     0.333333343  0.166666672  0.042101406
     0.333333343  0.500000000  0.042101406
     0.333333343  0.833333313  0.042101406
     0.666666687  0.166666672  0.042101406
     0.666666687  0.500000000  0.042101406
     0.666666687  0.833333313  0.042101406
     0.166666672  0.166666672  0.292101413
     0.166666672  0.500000000  0.292101413
     0.166666672  0.833333313  0.292101413
     0.500000000  0.166666672  0.292101413
     0.500000000  0.500000000  0.292101413
     0.500000000  0.833333313  0.292101413
     0.833333313  0.166666672  0.292101413
     0.833333313  0.500000000  0.292101413
     0.833333313  0.833333313  0.292101413

  ion indices of the primitive-cell ions
   primitive index   ion index
                 1           1
                 2           2
                 3           3
                 4           4
                 5           5
                 6           6
                 7           7
                 8           8
                 9           9
                10          10
                11          11
                12          12
                13          13
                14          14
                15          15
                16          16
                17          17
                18          18
                19          19
                20          20
                21          21
                22          22
                23          23
                24          24
                25          25
                26          26
                27          27
                28          28
                29          29
                30          30
                31          31
                32          32
                33          33
                34          34
                35          35
                36          36
                37          37
                38          38
                39          39
                40          40
                41          41
                42          42
                43          43
                44          44
                45          45
                46          46
                47          47
                48          48
                49          49
                50          50
                51          51
                52          52
                53          53
                54          54
                55          55
                56          56
                57          57
                58          58
                59          59
                60          60
                61          61
                62          62
                63          63
                64          64
                65          65
                66          66
                67          67
                68          68
                69          69
                70          70
                71          71
                72          72
                73          73
                74          74
                75          75
                76          76
                77          77
                78          78
                79          79
                80          80
                81          81
                82          82
                83          83
                84          84
                85          85
                86          86
                87          87
                88          88
                89          89
                90          90
                91          91
                92          92
                93          93
                94          94
                95          95
                96          96
                97          97
                98          98
                99          99
               100         100
               101         101
               102         102
               103         103
               104         104
               105         105
               106         106
               107         107
               108         108

----------------------------------------------------------------------------------------



 KPOINTS: K-Points

Automatic generation of k-mesh.
 Grid dimensions read from file:
 generate k-points for:    2    2    2

 Generating k-lattice:

  Cartesian coordinates                     Fractional coordinates (reciprocal lattice)
     0.043948922  0.000000000  0.000000000     0.500000000  0.000000000  0.000000000
     0.000000000  0.043948922  0.000000000     0.000000000  0.500000000  0.000000000
     0.000000000  0.000000000  0.052058529     0.000000000  0.000000000  0.500000000

  Length of vectors
     0.043948922  0.043948922  0.052058529

  Shift w.r.t. Gamma in fractional coordinates (k-lattice)
     0.500000000  0.500000000  0.500000000


 Subroutine IBZKPT returns following result:
 ===========================================

 Found      4 irreducible k-points:

 Following reciprocal coordinates:
            Coordinates               Weight
  0.250000  0.250000  0.250000      2.000000
 -0.250000  0.250000  0.250000      2.000000
 -0.250000 -0.250000  0.250000      2.000000
  0.250000 -0.250000  0.250000      2.000000

 Following cartesian coordinates:
            Coordinates               Weight
  0.021974  0.021974  0.026029      2.000000
 -0.021974  0.021974  0.026029      2.000000
 -0.021974 -0.021974  0.026029      2.000000
  0.021974 -0.021974  0.026029      2.000000


 Subroutine IBZKPT_HF returns following result:
 ==============================================

 Found      8 k-points in 1st BZ
 the following      8 k-points will be used (e.g. in the exchange kernel)
 Following reciprocal coordinates:   # in IRBZ
  0.250000  0.250000  0.250000    0.12500000   1 t-inv F
 -0.250000  0.250000  0.250000    0.12500000   2 t-inv F
 -0.250000 -0.250000  0.250000    0.12500000   3 t-inv F
  0.250000 -0.250000  0.250000    0.12500000   4 t-inv F
 -0.250000 -0.250000 -0.250000    0.12500000   1 t-inv T
  0.250000 -0.250000 -0.250000    0.12500000   2 t-inv T
  0.250000  0.250000 -0.250000    0.12500000   3 t-inv T
 -0.250000  0.250000 -0.250000    0.12500000   4 t-inv T


--------------------------------------------------------------------------------------------------------




 Dimension of arrays:
   k-points           NKPTS =      4   k-points in BZ     NKDIM =      4   number of bands    NBANDS=    476
   number of dos      NEDOS =    301   number of ions     NIONS =    108
   non local maximal  LDIM  =      6   non local SUM 2l+1 LMDIM =     18
   total plane-waves  NPLWV = 150528
   max r-space proj   IRMAX =   1791   max aug-charges    IRDMAX=   4900
   dimension x,y,z NGX =    56 NGY =   56 NGZ =   48
   dimension x,y,z NGXF=   112 NGYF=  112 NGZF=   96
   support grid    NGXF=   112 NGYF=  112 NGZF=   96
   ions per type =              36  72
   NGX,Y,Z   is equivalent  to a cutoff of   8.18,  8.18,  8.31 a.u.
   NGXF,Y,Z  is equivalent  to a cutoff of  16.37, 16.37, 16.62 a.u.

 SYSTEM =  unknown system
 POSCAR =  Ti4 O8

 Startparameter for this run:
   NWRITE =      2    write-flag & timer
   PREC   = normal    normal or accurate (medium, high low for compatibility)
   ISTART =      0    job   : 0-new  1-cont  2-samecut
   ICHARG =      2    charge: 1-file 2-atom 10-const
   ISPIN  =      1    spin polarized calculation?
   LNONCOLLINEAR =      F non collinear calculations
   LSORBIT =      F    spin-orbit coupling
   INIWAV =      1    electr: 0-lowe 1-rand  2-diag
   LASPH  =      F    aspherical Exc in radial PAW
 Electronic Relaxation 1
   ENCUT  =  400.0 eV  29.40 Ry    5.42 a.u.  18.55 18.55 15.66*2*pi/ulx,y,z
   ENINI  =  400.0     initial cutoff
   ENAUG  =  605.4 eV  augmentation charge cutoff
   NELM   =     80;   NELMIN=  4; NELMDL= -5     # of ELM steps
   EDIFF  = 0.1E-06   stopping-criterion for ELM
   LREAL  =      T    real-space projection
   NLSPLINE    = F    spline interpolate recip. space projectors
   LCOMPAT=      F    compatible to vasp.4.4
   GGA_COMPAT  = T    GGA compatible to vasp.4.4-vasp.4.6
   LMAXPAW     = -100 max onsite density
   LMAXMIX     =    2 max onsite mixed and CHGCAR
   VOSKOWN=      0    Vosko Wilk Nusair interpolation
   ROPT   =   -0.00050  -0.00050
 Ionic relaxation
   EDIFFG = 0.1E-05   stopping-criterion for IOM
   NSW    =      0    number of steps for IOM
   NBLOCK =      1;   KBLOCK =      1    inner block; outer block
   IBRION =     -1    ionic relax: 0-MD 1-quasi-New 2-CG
   NFREE  =      0    steps in history (QN), initial steepest desc. (CG)
   ISIF   =      2    stress and relaxation
   IWAVPR =     10    prediction:  0-non 1-charg 2-wave 3-comb
   ISYM   =      0    0-nonsym 1-usesym 2-fastsym
   LCORR  =      T    Harris-Foulkes like correction to forces

   POTIM  = 0.5000    time-step for ionic-motion
   TEIN   =    0.0    initial temperature
   TEBEG  =    0.0;   TEEND  =   0.0 temperature during run
   SMASS  =  -3.00    Nose mass-parameter (am)
   estimated Nose-frequenzy (Omega)   =  0.10E-29 period in steps = 0.13E+47 mass=  -0.296E-26a.u.
   SCALEE = 1.0000    scale energy and forces
   NPACO  =    256;   APACO  = 10.0  distance and # of slots for P.C.
   PSTRESS=    0.0 pullay stress

  Mass of Ions in am
   POMASS =  47.88 16.00
  Ionic Valenz
   ZVAL   =  10.00  6.00
  Atomic Wigner-Seitz radii
   RWIGS  =  -1.00 -1.00
  virtual crystal weights
   VCA    =   1.00  1.00
   NELECT =     792.0000    total number of electrons
   NUPDOWN=      -1.0000    fix difference up-down

 DOS related values:
   EMIN   =  10.00;   EMAX   =-10.00  energy-range for DOS
   EFERMI =   0.00
   ISMEAR =     0;   SIGMA  =   0.10  broadening in eV -4-tet -1-fermi 0-gaus

 Electronic relaxation 2 (details)
   IALGO  =     38    algorithm
   LDIAG  =      T    sub-space diagonalisation (order eigenvalues)
   LSUBROT=      F    optimize rotation matrix (better conditioning)
   TURBO    =      0    0=normal 1=particle mesh
   IRESTART =      0    0=no restart 2=restart with 2 vectors
   NREBOOT  =      0    no. of reboots
   NMIN     =      0    reboot dimension
   EREF     =   0.00    reference energy to select bands
   IMIX   =      4    mixing-type and parameters
     AMIX     =   0.40;   BMIX     =  1.00
     AMIX_MAG =   1.60;   BMIX_MAG =  1.00
     AMIN     =   0.10
     WC   =   100.;   INIMIX=   1;  MIXPRE=   1;  MAXMIX= -45

 Intra band minimization:
   WEIMIN = 0.0000     energy-eigenvalue tresh-hold
   EBREAK =  0.53E-10  absolut break condition
   DEPER  =   0.30     relativ break condition

   TIME   =   0.40     timestep for ELM

  volume/ion in A,a.u.               =      11.51        77.68
  Fermi-wavevector in a.u.,A,eV,Ry     =   1.408670  2.662001 26.998745  1.984352
  Thomas-Fermi vector in A             =   2.530804

 Write flags
   LWAVE        =      F    write WAVECAR
   LDOWNSAMPLE  =      F    k-point downsampling of WAVECAR
   LCHARG       =      F    write CHGCAR
   LVTOT        =      F    write LOCPOT, total local potential
   LVHAR        =      F    write LOCPOT, Hartree potential only
   LELF         =      F    write electronic localiz. function (ELF)
   LORBIT       =      0    0 simple, 1 ext, 2 COOP (PROOUT), +10 PAW based schemes


 Dipole corrections
   LMONO  =      F    monopole corrections only (constant potential shift)
   LDIPOL =      F    correct potential (dipole corrections)
   IDIPOL =      0    1-x, 2-y, 3-z, 4-all directions
   EPSILON=  1.0000000 bulk dielectric constant

 Exchange correlation treatment:
   GGA     =    --    GGA type
   LEXCH   =     8    internal setting for exchange type
   LIBXC   =     F    Libxc
   VOSKOWN =     0    Vosko Wilk Nusair interpolation
   LHFCALC =     F    Hartree Fock is set to
   LHFONE  =     F    Hartree Fock one center treatment
   AEXX    =    0.0000 exact exchange contribution

 Linear response parameters
   LEPSILON=     T    determine dielectric tensor
   LRPA    =     F    only Hartree local field effects (RPA)
   LNABLA  =     F    use nabla operator in PAW spheres
   LVEL    =     F    velocity operator in full k-point grid
   CSHIFT  =0.1000    complex shift for real part using Kramers Kronig
   OMEGAMAX=  -1.0    maximum frequency
   DEG_THRESHOLD= 0.2000000E-02 threshold for treating states as degnerate
   RTIME   =   -0.100 relaxation time in fs
  (WPLASMAI=    0.000 imaginary part of plasma frequency in eV, 0.658/RTIME)
   DFIELD  = 0.0000000 0.0000000 0.0000000 field for delta impulse in time

  Optional k-point grid parameters
   LKPOINTS_OPT  =     F    use optional k-point grid
   KPOINTS_OPT_MODE=     1    mode for optional k-point grid

 Orbital magnetization related:
   ORBITALMAG=     F  switch on orbital magnetization
   LCHIMAG   =     F  perturbation theory with respect to B field
   DQ        =  0.001000  dq finite difference perturbation B field
   LLRAUG    =     F  two centre corrections for induced B field

 PEAD related settings:
   LPEAD      =     T    switch on PEAD
   IPEAD      =     4    finite difference order for dpsi/dk
   LCALCPOL   =     F    calculate macroscopic polarization
   LCALCEPS   =     F    calculate dielectric tensor
   EFIELD_PEAD=    0.0000    0.0000    0.0000
   SKIP_EDOTP =     F
   LRPA       =     F
   SKIP_SCF   =     F


--------------------------------------------------------------------------------------------------------


 Static calculation
 charge density and potential will be updated during run
 non-spin polarized calculation
 Variant of blocked Davidson
 Davidson routine will perform the subspace rotation
 perform sub-space diagonalisation
    after iterative eigenvector-optimisation
 modified Broyden-mixing scheme, WC =      100.0
 initial mixing is a Kerker type mixing with AMIX =  0.4000 and BMIX =      1.0000
 Hartree-type preconditioning will be used
 using additional bands           80
 real space projection scheme for non local part
 use partial core corrections
 calculate Harris-corrections to forces
   (improved forces if not selfconsistent)
 use gradient corrections
 use of overlap-Matrix (Vanderbilt PP)
 Gauss-broadening in eV      SIGMA  =   0.10


--------------------------------------------------------------------------------------------------------


  energy-cutoff  :      400.00
  volume of cell :     1243.14
      direct lattice vectors                 reciprocal lattice vectors
    11.376843452  0.000000000  0.000000000     0.087897843  0.000000000  0.000000000
     0.000000000 11.376843452  0.000000000     0.000000000  0.087897843  0.000000000
     0.000000000  0.000000000  9.604574204     0.000000000  0.000000000  0.104117057

  length of vectors
    11.376843452 11.376843452  9.604574204     0.087897843  0.087897843  0.104117057



 k-points in units of 2pi/SCALE and weight: K-Points
   0.02197446  0.02197446  0.02602926       0.250
  -0.02197446  0.02197446  0.02602926       0.250
  -0.02197446 -0.02197446  0.02602926       0.250
   0.02197446 -0.02197446  0.02602926       0.250

 k-points in reciprocal lattice and weights: K-Points
   0.25000000  0.25000000  0.25000000       0.250
  -0.25000000  0.25000000  0.25000000       0.250
  -0.25000000 -0.25000000  0.25000000       0.250
   0.25000000 -0.25000000  0.25000000       0.250

 position of ions in fractional coordinates (direct lattice)
   0.16666667  0.16666667  0.50000000
   0.16666667  0.50000000  0.50000000
   0.16666667  0.83333331  0.50000000
   0.50000000  0.16666667  0.50000000
   0.50000000  0.50000000  0.48958829
   0.50000000  0.83333331  0.50000000
   0.83333331  0.16666667  0.50000000
   0.83333331  0.50000000  0.50000000
   0.83333331  0.83333331  0.50000000
   0.16666667  0.00000000  0.75000000
   0.16666667  0.33333334  0.75000000
   0.16666667  0.66666669  0.75000000
   0.50000000  0.00000000  0.75000000
   0.50000000  0.33333334  0.75000000
   0.50000000  0.66666669  0.75000000
   0.83333331  0.00000000  0.75000000
   0.83333331  0.33333334  0.75000000
   0.83333331  0.66666669  0.75000000
   0.00000000  0.00000000  0.00000000
   0.00000000  0.33333334  0.00000000
   0.00000000  0.66666669  0.00000000
   0.33333334  0.00000000  0.00000000
   0.33333334  0.33333334  0.00000000
   0.33333334  0.66666669  0.00000000
   0.66666669  0.00000000  0.00000000
   0.66666669  0.33333334  0.00000000
   0.66666669  0.66666669  0.00000000
   0.00000000  0.16666667  0.25000000
   0.00000000  0.50000000  0.25000000
   0.00000000  0.83333331  0.25000000
   0.33333334  0.16666667  0.25000000
   0.33333334  0.50000000  0.25000000
   0.33333334  0.83333331  0.25000000
   0.66666669  0.16666667  0.25000000
   0.66666669  0.50000000  0.25000000
   0.66666669  0.83333331  0.25000000
   0.00000000  0.16666667  0.45789859
   0.00000000  0.50000000  0.45789859
   0.00000000  0.83333331  0.45789859
   0.33333334  0.16666667  0.45789859
   0.33333334  0.50000000  0.45789859
   0.33333334  0.83333331  0.45789859
   0.66666669  0.16666667  0.45789859
   0.66666669  0.50000000  0.45789859
   0.66666669  0.83333331  0.45789859
   0.16666667  0.16666667  0.70789862
   0.16666667  0.50000000  0.70789862
   0.16666667  0.83333331  0.70789862
   0.50000000  0.16666667  0.70789862
   0.50000000  0.50000000  0.70789862
   0.50000000  0.83333331  0.70789862
   0.83333331  0.16666667  0.70789862
   0.83333331  0.50000000  0.70789862
   0.83333331  0.83333331  0.70789862
   0.16666667  0.00000000  0.54210138
   0.16666667  0.33333334  0.54210138
   0.16666667  0.66666669  0.54210138
   0.50000000  0.00000000  0.54210138
   0.50000000  0.33333334  0.54210138
   0.50000000  0.66666669  0.54210138
   0.83333331  0.00000000  0.54210138
   0.83333331  0.33333334  0.54210138
   0.83333331  0.66666669  0.54210138
   0.00000000  0.00000000  0.79210138
   0.00000000  0.33333334  0.79210138
   0.00000000  0.66666669  0.79210138
   0.33333334  0.00000000  0.79210138
   0.33333334  0.33333334  0.79210138
   0.33333334  0.66666669  0.79210138
   0.66666669  0.00000000  0.79210138
   0.66666669  0.33333334  0.79210138
   0.66666669  0.66666669  0.79210138
   0.16666667  0.00000000  0.95789862
   0.16666667  0.33333334  0.95789862
   0.16666667  0.66666669  0.95789862
   0.50000000  0.00000000  0.95789862
   0.50000000  0.33333334  0.95789862
   0.50000000  0.66666669  0.95789862
   0.83333331  0.00000000  0.95789862
   0.83333331  0.33333334  0.95789862
   0.83333331  0.66666669  0.95789862
   0.00000000  0.00000000  0.20789860
   0.00000000  0.33333334  0.20789860
   0.00000000  0.66666669  0.20789860
   0.33333334  0.00000000  0.20789860
   0.33333334  0.33333334  0.20789860
   0.33333334  0.66666669  0.20789860
   0.66666669  0.00000000  0.20789860
   0.66666669  0.33333334  0.20789860
   0.66666669  0.66666669  0.20789860
   0.00000000  0.16666667  0.04210141
   0.00000000  0.50000000  0.04210141
   0.00000000  0.83333331  0.04210141
   0.33333334  0.16666667  0.04210141
   0.33333334  0.50000000  0.04210141
   0.33333334  0.83333331  0.04210141
   0.66666669  0.16666667  0.04210141
   0.66666669  0.50000000  0.04210141
   0.66666669  0.83333331  0.04210141
   0.16666667  0.16666667  0.29210141
   0.16666667  0.50000000  0.29210141
   0.16666667  0.83333331  0.29210141
   0.50000000  0.16666667  0.29210141
   0.50000000  0.50000000  0.29210141
   0.50000000  0.83333331  0.29210141
   0.83333331  0.16666667  0.29210141
   0.83333331  0.50000000  0.29210141
   0.83333331  0.83333331  0.29210141

 position of ions in cartesian coordinates  (Angst):
   1.89614063  1.89614063  4.80228710
   1.89614063  5.68842173  4.80228710
   1.89614063  9.48070265  4.80228710
   5.68842173  1.89614063  4.80228710
   5.68842173  5.68842173  4.70228710
   5.68842173  9.48070265  4.80228710
   9.48070265  1.89614063  4.80228710
   9.48070265  5.68842173  4.80228710
   9.48070265  9.48070265  4.80228710
   1.89614063  0.00000000  7.20343065
   1.89614063  3.79228126  7.20343065
   1.89614063  7.58456253  7.20343065
   5.68842173  0.00000000  7.20343065
   5.68842173  3.79228126  7.20343065
   5.68842173  7.58456253  7.20343065
   9.48070265  0.00000000  7.20343065
   9.48070265  3.79228126  7.20343065
   9.48070265  7.58456253  7.20343065
   0.00000000  0.00000000  0.00000000
   0.00000000  3.79228126  0.00000000
   0.00000000  7.58456253  0.00000000
   3.79228126  0.00000000  0.00000000
   3.79228126  3.79228126  0.00000000
   3.79228126  7.58456253  0.00000000
   7.58456253  0.00000000  0.00000000
   7.58456253  3.79228126  0.00000000
   7.58456253  7.58456253  0.00000000
   0.00000000  1.89614063  2.40114355
   0.00000000  5.68842173  2.40114355
   0.00000000  9.48070265  2.40114355
   3.79228126  1.89614063  2.40114355
   3.79228126  5.68842173  2.40114355
   3.79228126  9.48070265  2.40114355
   7.58456253  1.89614063  2.40114355
   7.58456253  5.68842173  2.40114355
   7.58456253  9.48070265  2.40114355
   0.00000000  1.89614063  4.39792096
   0.00000000  5.68842173  4.39792096
   0.00000000  9.48070265  4.39792096
   3.79228126  1.89614063  4.39792096
   3.79228126  5.68842173  4.39792096
   3.79228126  9.48070265  4.39792096
   7.58456253  1.89614063  4.39792096
   7.58456253  5.68842173  4.39792096
   7.58456253  9.48070265  4.39792096
   1.89614063  1.89614063  6.79906479
   1.89614063  5.68842173  6.79906479
   1.89614063  9.48070265  6.79906479
   5.68842173  1.89614063  6.79906479
   5.68842173  5.68842173  6.79906479
   5.68842173  9.48070265  6.79906479
   9.48070265  1.89614063  6.79906479
   9.48070265  5.68842173  6.79906479
   9.48070265  9.48070265  6.79906479
   1.89614063  0.00000000  5.20665296
   1.89614063  3.79228126  5.20665296
   1.89614063  7.58456253  5.20665296
   5.68842173  0.00000000  5.20665296
   5.68842173  3.79228126  5.20665296
   5.68842173  7.58456253  5.20665296
   9.48070265  0.00000000  5.20665296
   9.48070265  3.79228126  5.20665296
   9.48070265  7.58456253  5.20665296
   0.00000000  0.00000000  7.60779651
   0.00000000  3.79228126  7.60779651
   0.00000000  7.58456253  7.60779651
   3.79228126  0.00000000  7.60779651
   3.79228126  3.79228126  7.60779651
   3.79228126  7.58456253  7.60779651
   7.58456253  0.00000000  7.60779651
   7.58456253  3.79228126  7.60779651
   7.58456253  7.58456253  7.60779651
   1.89614063  0.00000000  9.20020834
   1.89614063  3.79228126  9.20020834
   1.89614063  7.58456253  9.20020834
   5.68842173  0.00000000  9.20020834
   5.68842173  3.79228126  9.20020834
   5.68842173  7.58456253  9.20020834
   9.48070265  0.00000000  9.20020834
   9.48070265  3.79228126  9.20020834
   9.48070265  7.58456253  9.20020834
   0.00000000  0.00000000  1.99677755
   0.00000000  3.79228126  1.99677755
   0.00000000  7.58456253  1.99677755
   3.79228126  0.00000000  1.99677755
   3.79228126  3.79228126  1.99677755
   3.79228126  7.58456253  1.99677755
   7.58456253  0.00000000  1.99677755
   7.58456253  3.79228126  1.99677755
   7.58456253  7.58456253  1.99677755
   0.00000000  1.89614063  0.40436607
   0.00000000  5.68842173  0.40436607
   0.00000000  9.48070265  0.40436607
   3.79228126  1.89614063  0.40436607
   3.79228126  5.68842173  0.40436607
   3.79228126  9.48070265  0.40436607
   7.58456253  1.89614063  0.40436607
   7.58456253  5.68842173  0.40436607
   7.58456253  9.48070265  0.40436607
   1.89614063  1.89614063  2.80550970
   1.89614063  5.68842173  2.80550970
   1.89614063  9.48070265  2.80550970
   5.68842173  1.89614063  2.80550970
   5.68842173  5.68842173  2.80550970
   5.68842173  9.48070265  2.80550970
   9.48070265  1.89614063  2.80550970
   9.48070265  5.68842173  2.80550970
   9.48070265  9.48070265  2.80550970



--------------------------------------------------------------------------------------------------------


 k-point   1 :   0.2500 0.2500 0.2500  plane waves:   22590
 k-point   2 :  -0.2500 0.2500 0.2500  plane waves:   22590
 k-point   3 :  -0.2500-0.2500 0.2500  plane waves:   22590
 k-point   4 :   0.2500-0.2500 0.2500  plane waves:   22590

 maximum and minimum number of plane-waves per node :     22590    22590

 maximum number of plane-waves:     22590
 maximum index in each direction:
   IXMAX=   18   IYMAX=   18   IZMAX=   15
   IXMIN=  -18   IYMIN=  -18   IZMIN=  -15


 serial   3D FFT for wavefunctions
 parallel 3D FFT for charge:
    minimum data exchange during FFTs selected (reduces bandwidth)


 total amount of memory used by VASP MPI-rank0   266716. kBytes
=======================================================================

   base      :      30000. kBytes
   nonlr-proj:      19547. kBytes
   fftplans  :      10927. kBytes
   grid      :      23181. kBytes
   one-center:       1679. kBytes
   wavefun   :     181382. kBytes

     INWAV:  cpu time      0.0000: real time      0.0003
 Broyden mixing: mesh for mixing (old mesh)
   NGX = 37   NGY = 37   NGZ = 31
  (NGX  =112   NGY  =112   NGZ  = 96)
  gives a total of  42439 points

 initial charge density was supplied:
 charge density of overlapping atoms calculated
 number of electron     792.0000000 magnetization
 keeping initial charge density in first step


--------------------------------------------------------------------------------------------------------


 Maximum index for non-local projection operator         1743
 Maximum index for augmentation-charges         1189 (set IRDMAX)


--------------------------------------------------------------------------------------------------------


 First call to EWALD:  gamma=   0.165
 Maximum number of real-space cells 3x 3x 3
 Maximum number of reciprocal cells 3x 3x 3

    FEWALD:  cpu time      0.5521: real time      0.5550


--------------------------------------- Iteration      1(   1)  ---------------------------------------


    POTLOK:  cpu time      0.2160: real time      0.2185
    SETDIJ:  cpu time      0.0091: real time      0.0093
     EDDAV:  cpu time     14.2727: real time     14.3778
       DOS:  cpu time      0.0035: real time      0.0037
    --------------------------------------------
      LOOP:  cpu time     14.5014: real time     14.6092

 eigenvalue-minimisations  :  3824
 total energy-change (2. order) : 0.1156021E+05  (-0.3305646E+05)
 number of electron     792.0000000 magnetization
 augmentation part      792.0000000 magnetization

 Free energy of the ion-electron system (eV)
  ---------------------------------------------------
  alpha Z        PSCENC =      3563.47650690
  Ewald energy   TEWEN  =    -48587.19152358
  -Hartree energ DENC   =    -18842.19623028
  -exchange      EXHF   =         0.00000000
  -V(xc)+E(xc)   XCENC  =      3286.86667867
  PAW double counting   =     54431.09303398   -54537.79254336
  entropy T*S    EENTRO =        -0.13688668
  eigenvalues    EBANDS =      3589.69579537
  atomic energy  EATOM  =     68656.39924158
  Solvation  Ediel_sol  =         0.00000000
  ---------------------------------------------------
  free energy    TOTEN  =     11560.21407260 eV

  energy without entropy =    11560.35095928  energy(sigma->0) =    11560.28251594


--------------------------------------------------------------------------------------------------------




--------------------------------------- Iteration      1(   2)  ---------------------------------------


     EDDAV:  cpu time     14.2322: real time     14.3368
       DOS:  cpu time      0.0010: real time      0.0010
    --------------------------------------------
      LOOP:  cpu time     14.2331: real time     14.3378

 eigenvalue-minimisations  :  3808
 total energy-change (2. order) :-0.9987460E+04  (-0.9556646E+04)
 number of electron     792.0000000 magnetization
 augmentation part      792.0000000 magnetization

 Free energy of the ion-electron system (eV)
  ---------------------------------------------------
  alpha Z        PSCENC =      3563.47650690
  Ewald energy   TEWEN  =    -48587.19152358
  -Hartree energ DENC   =    -18842.19623028
  -exchange      EXHF   =         0.00000000
  -V(xc)+E(xc)   XCENC  =      3286.86667867
  PAW double counting   =     54431.09303398   -54537.79254336
  entropy T*S    EENTRO =        -0.28468026
  eigenvalues    EBANDS =     -6397.61640399
  atomic energy  EATOM  =     68656.39924158
  Solvation  Ediel_sol  =         0.00000000
  ---------------------------------------------------
  free energy    TOTEN  =      1572.75407966 eV

  energy without entropy =     1573.03875992  energy(sigma->0) =     1572.89641979


--------------------------------------------------------------------------------------------------------




--------------------------------------- Iteration      1(   3)  ---------------------------------------


     EDDAV:  cpu time     16.1085: real time     16.2255
       DOS:  cpu time      0.0013: real time      0.0013
    --------------------------------------------
      LOOP:  cpu time     16.1099: real time     16.2268

 eigenvalue-minimisations  :  4432
 total energy-change (2. order) :-0.2643271E+04  (-0.2571398E+04)
 number of electron     792.0000000 magnetization
 augmentation part      792.0000000 magnetization

 Free energy of the ion-electron system (eV)
  ---------------------------------------------------
  alpha Z        PSCENC =      3563.47650690
  Ewald energy   TEWEN  =    -48587.19152358
  -Hartree energ DENC   =    -18842.19623028
  -exchange      EXHF   =         0.00000000
  -V(xc)+E(xc)   XCENC  =      3286.86667867
  PAW double counting   =     54431.09303398   -54537.79254336
  entropy T*S    EENTRO =        -0.00000000
  eigenvalues    EBANDS =     -9041.17249895
  atomic energy  EATOM  =     68656.39924158
  Solvation  Ediel_sol  =         0.00000000
  ---------------------------------------------------
  free energy    TOTEN  =     -1070.51733505 eV

  energy without entropy =    -1070.51733505  energy(sigma->0) =    -1070.51733505


--------------------------------------------------------------------------------------------------------




--------------------------------------- Iteration      1(   4)  ---------------------------------------


     EDDAV:  cpu time     18.2441: real time     18.3776
       DOS:  cpu time      0.0020: real time      0.0020
    --------------------------------------------
      LOOP:  cpu time     18.2460: real time     18.3796

 eigenvalue-minimisations  :  5032
 total energy-change (2. order) :-0.2028489E+03  (-0.2017792E+03)
 number of electron     792.0000000 magnetization
 augmentation part      792.0000000 magnetization

 Free energy of the ion-electron system (eV)
  ---------------------------------------------------
  alpha Z        PSCENC =      3563.47650690
  Ewald energy   TEWEN  =    -48587.19152358
  -Hartree energ DENC   =    -18842.19623028
  -exchange      EXHF   =         0.00000000
  -V(xc)+E(xc)   XCENC  =      3286.86667867
  PAW double counting   =     54431.09303398   -54537.79254336
  entropy T*S    EENTRO =        -0.00000000
  eigenvalues    EBANDS =     -9244.02141324
  atomic energy  EATOM  =     68656.39924158
  Solvation  Ediel_sol  =         0.00000000
  ---------------------------------------------------
  free energy    TOTEN  =     -1273.36624933 eV

  energy without entropy =    -1273.36624933  energy(sigma->0) =    -1273.36624933


--------------------------------------------------------------------------------------------------------




--------------------------------------- Iteration      1(   5)  ---------------------------------------


     EDDAV:  cpu time     17.7126: real time     17.8417
       DOS:  cpu time      0.0022: real time      0.0022
    CHARGE:  cpu time      0.2313: real time      0.2339
    MIXING:  cpu time      0.0119: real time      0.0120
    --------------------------------------------
      LOOP:  cpu time     17.9580: real time     18.0898

 eigenvalue-minimisations  :  4920
 total energy-change (2. order) :-0.5233002E+01  (-0.5220953E+01)
 number of electron     792.0003053 magnetization
 augmentation part      202.2318785 magnetization

 Broyden mixing:
  rms(total) = 0.17236E+02    rms(broyden)= 0.17235E+02
  rms(prec ) = 0.19172E+02
  weight for this iteration     100.00

 Free energy of the ion-electron system (eV)
  ---------------------------------------------------
  alpha Z        PSCENC =      3563.47650690
  Ewald energy   TEWEN  =    -48587.19152358
  -Hartree energ DENC   =    -18842.19623028
  -exchange      EXHF   =         0.00000000
  -V(xc)+E(xc)   XCENC  =      3286.86667867
  PAW double counting   =     54431.09303398   -54537.79254336
  entropy T*S    EENTRO =        -0.00000000
  eigenvalues    EBANDS =     -9249.25441539
  atomic energy  EATOM  =     68656.39924158
  Solvation  Ediel_sol  =         0.00000000
  ---------------------------------------------------
  free energy    TOTEN  =     -1278.59925148 eV

  energy without entropy =    -1278.59925148  energy(sigma->0) =    -1278.59925148


--------------------------------------------------------------------------------------------------------




--------------------------------------- Iteration      1(   6)  ---------------------------------------


    POTLOK:  cpu time      0.1838: real time      0.1854
    SETDIJ:  cpu time      0.0243: real time      0.0245
     EDDAV:  cpu time     17.8632: real time     17.9894
       DOS:  cpu time      0.0006: real time      0.0006
    CHARGE:  cpu time      0.2358: real time      0.2398
    MIXING:  cpu time      0.0113: real time      0.0114
    --------------------------------------------
      LOOP:  cpu time     18.3191: real time     18.4512

 eigenvalue-minimisations  :  4968
 total energy-change (2. order) : 0.3023982E+03  (-0.1970229E+03)
 number of electron     792.0002461 magnetization
 augmentation part      214.0984170 magnetization

 Broyden mixing:
  rms(total) = 0.53087E+01    rms(broyden)= 0.53038E+01
  rms(prec ) = 0.58328E+01
  weight for this iteration     100.00

 eigenvalues of (default mixing * dielectric matrix)
  average eigenvalue GAMMA=   0.9661
  0.9661

 Free energy of the ion-electron system (eV)
  ---------------------------------------------------
  alpha Z        PSCENC =      3563.47650690
  Ewald energy   TEWEN  =    -48587.19152358
  -Hartree energ DENC   =    -19066.25304177
  -exchange      EXHF   =         0.00000000
  -V(xc)+E(xc)   XCENC  =      3337.82635164
  PAW double counting   =     68249.49102803   -68481.76497057
  entropy T*S    EENTRO =        -0.00000000
  eigenvalues    EBANDS =     -8648.18464157
  atomic energy  EATOM  =     68656.39924158
  Solvation  Ediel_sol  =         0.00000000
  ---------------------------------------------------
  free energy    TOTEN  =      -976.20104934 eV

  energy without entropy =     -976.20104934  energy(sigma->0) =     -976.20104934


--------------------------------------------------------------------------------------------------------




--------------------------------------- Iteration      1(   7)  ---------------------------------------


    POTLOK:  cpu time      0.1872: real time      0.1889
    SETDIJ:  cpu time      0.0203: real time      0.0204
     EDDAV:  cpu time     18.9854: real time     19.1210
       DOS:  cpu time      0.0005: real time      0.0005
    CHARGE:  cpu time      0.2391: real time      0.2417
    MIXING:  cpu time      0.0152: real time      0.0154
    --------------------------------------------
      LOOP:  cpu time     19.4477: real time     19.5878

 eigenvalue-minimisations  :  5344
 total energy-change (2. order) : 0.4227513E+01  (-0.2845845E+02)
 number of electron     792.0002651 magnetization
 augmentation part      207.3462399 magnetization

 Broyden mixing:
  rms(total) = 0.45923E+01    rms(broyden)= 0.45920E+01
  rms(prec ) = 0.47840E+01
  weight for this iteration     100.00

 eigenvalues of (default mixing * dielectric matrix)
  average eigenvalue GAMMA=   1.8469
  0.7384  2.9554

 Free energy of the ion-electron system (eV)
  ---------------------------------------------------
  alpha Z        PSCENC =      3563.47650690
  Ewald energy   TEWEN  =    -48587.19152358
  -Hartree energ DENC   =    -18909.29433635
  -exchange      EXHF   =         0.00000000
  -V(xc)+E(xc)   XCENC  =      3318.63787006
  PAW double counting   =     75263.91706594   -75507.28080820
  entropy T*S    EENTRO =        -0.00000000
  eigenvalues    EBANDS =     -8770.63755252
  atomic energy  EATOM  =     68656.39924158
  Solvation  Ediel_sol  =         0.00000000
  ---------------------------------------------------
  free energy    TOTEN  =      -971.97353618 eV

  energy without entropy =     -971.97353618  energy(sigma->0) =     -971.97353618


--------------------------------------------------------------------------------------------------------




--------------------------------------- Iteration      1(   8)  ---------------------------------------


    POTLOK:  cpu time      0.1929: real time      0.1945
    SETDIJ:  cpu time      0.0173: real time      0.0174
     EDDAV:  cpu time     18.1774: real time     18.3070
       DOS:  cpu time      0.0005: real time      0.0006
    CHARGE:  cpu time      0.2385: real time      0.2409
    MIXING:  cpu time      0.0117: real time      0.0118
    --------------------------------------------
      LOOP:  cpu time     18.6383: real time     18.7721

 eigenvalue-minimisations  :  5024
 total energy-change (2. order) :-0.1431653E+00  (-0.1102481E+02)
 number of electron     792.0002586 magnetization
 augmentation part      215.5747892 magnetization

 Broyden mixing:
  rms(total) = 0.33738E+01    rms(broyden)= 0.33737E+01
  rms(prec ) = 0.36716E+01
  weight for this iteration     100.00

 eigenvalues of (default mixing * dielectric matrix)
  average eigenvalue GAMMA=   1.2330
  2.1655  0.9328  0.6008

 Free energy of the ion-electron system (eV)
  ---------------------------------------------------
  alpha Z        PSCENC =      3563.47650690
  Ewald energy   TEWEN  =    -48587.19152358
  -Hartree energ DENC   =    -18532.32742943
  -exchange      EXHF   =         0.00000000
  -V(xc)+E(xc)   XCENC  =      3303.85181883
  PAW double counting   =     93914.73879432   -94230.45473582
  entropy T*S    EENTRO =        -0.00000000
  eigenvalues    EBANDS =     -9060.60937433
  atomic energy  EATOM  =     68656.39924158
  Solvation  Ediel_sol  =         0.00000000
  ---------------------------------------------------
  free energy    TOTEN  =      -972.11670153 eV

  energy without entropy =     -972.11670153  energy(sigma->0) =     -972.11670153


--------------------------------------------------------------------------------------------------------




--------------------------------------- Iteration      1(   9)  ---------------------------------------


    POTLOK:  cpu time      0.2120: real time      0.2139
    SETDIJ:  cpu time      0.0198: real time      0.0199
     EDDAV:  cpu time     17.9983: real time     18.1259
       DOS:  cpu time      0.0039: real time      0.0039
    CHARGE:  cpu time      0.2355: real time      0.2368
    MIXING:  cpu time      0.0135: real time      0.0136
    --------------------------------------------
      LOOP:  cpu time     18.4830: real time     18.6140

 eigenvalue-minimisations  :  5008
 total energy-change (2. order) : 0.5569065E+01  (-0.3478712E+01)
 number of electron     792.0002633 magnetization
 augmentation part      211.4548606 magnetization

 Broyden mixing:
  rms(total) = 0.24746E+00    rms(broyden)= 0.24670E+00
  rms(prec ) = 0.27213E+00
  weight for this iteration     100.00

 eigenvalues of (default mixing * dielectric matrix)
  average eigenvalue GAMMA=   1.2449
  2.2084  1.0739  1.0739  0.6233

 Free energy of the ion-electron system (eV)
  ---------------------------------------------------
  alpha Z        PSCENC =      3563.47650690
  Ewald energy   TEWEN  =    -48587.19152358
  -Hartree energ DENC   =    -18678.21772990
  -exchange      EXHF   =         0.00000000
  -V(xc)+E(xc)   XCENC  =      3308.80327737
  PAW double counting   =     88581.39965712   -88877.68017871
  entropy T*S    EENTRO =        -0.00000000
  eigenvalues    EBANDS =     -8933.53688716
  atomic energy  EATOM  =     68656.39924158
  Solvation  Ediel_sol  =         0.00000000
  ---------------------------------------------------
  free energy    TOTEN  =      -966.54763639 eV

  energy without entropy =     -966.54763639  energy(sigma->0) =     -966.54763639


--------------------------------------------------------------------------------------------------------




--------------------------------------- Iteration      1(  10)  ---------------------------------------


    POTLOK:  cpu time      0.2090: real time      0.2108
    SETDIJ:  cpu time      0.0084: real time      0.0085
     EDDAV:  cpu time     18.4657: real time     18.5949
       DOS:  cpu time      0.0044: real time      0.0044
    CHARGE:  cpu time      0.2349: real time      0.2363
    MIXING:  cpu time      0.0146: real time      0.0147
    --------------------------------------------
      LOOP:  cpu time     18.9369: real time     19.0697

 eigenvalue-minimisations  :  5192
 total energy-change (2. order) :-0.5574925E-01  (-0.9515777E-01)
 number of electron     792.0002623 magnetization
 augmentation part      211.5768155 magnetization

 Broyden mixing:
  rms(total) = 0.24027E+00    rms(broyden)= 0.24024E+00
  rms(prec ) = 0.26621E+00
  weight for this iteration     100.00

 eigenvalues of (default mixing * dielectric matrix)
  average eigenvalue GAMMA=   1.3232
  2.5177  1.8231  1.0277  0.6848  0.5629

 Free energy of the ion-electron system (eV)
  ---------------------------------------------------
  alpha Z        PSCENC =      3563.47650690
  Ewald energy   TEWEN  =    -48587.19152358
  -Hartree energ DENC   =    -18712.32177089
  -exchange      EXHF   =         0.00000000
  -V(xc)+E(xc)   XCENC  =      3311.33620409
  PAW double counting   =     88924.51192041   -89224.63165535
  entropy T*S    EENTRO =        -0.00000000
  eigenvalues    EBANDS =     -8898.18230880
  atomic energy  EATOM  =     68656.39924158
  Solvation  Ediel_sol  =         0.00000000
  ---------------------------------------------------
  free energy    TOTEN  =      -966.60338564 eV

  energy without entropy =     -966.60338564  energy(sigma->0) =     -966.60338564


--------------------------------------------------------------------------------------------------------




--------------------------------------- Iteration      1(  11)  ---------------------------------------


    POTLOK:  cpu time      0.2056: real time      0.2073
    SETDIJ:  cpu time      0.0090: real time      0.0091
     EDDAV:  cpu time     16.8691: real time     16.9863
       DOS:  cpu time      0.0037: real time      0.0037
    CHARGE:  cpu time      0.2381: real time      0.2394
    MIXING:  cpu time      0.0148: real time      0.0149
    --------------------------------------------
      LOOP:  cpu time     17.3403: real time     17.4607

 eigenvalue-minimisations  :  4608
 total energy-change (2. order) :-0.1333588E-01  (-0.1547777E-01)
 number of electron     792.0002621 magnetization
 augmentation part      211.4279371 magnetization

 Broyden mixing:
  rms(total) = 0.15466E+00    rms(broyden)= 0.15465E+00
  rms(prec ) = 0.18705E+00
  weight for this iteration     100.00

 eigenvalues of (default mixing * dielectric matrix)
  average eigenvalue GAMMA=   1.2832
  2.5279  1.8106  1.0767  1.0767  0.5821  0.6251

 Free energy of the ion-electron system (eV)
  ---------------------------------------------------
  alpha Z        PSCENC =      3563.47650690
  Ewald energy   TEWEN  =    -48587.19152358
  -Hartree energ DENC   =    -18741.35233809
  -exchange      EXHF   =         0.00000000
  -V(xc)+E(xc)   XCENC  =      3313.17241781
  PAW double counting   =     89219.68440897   -89522.43933147
  entropy T*S    EENTRO =        -0.00000000
  eigenvalues    EBANDS =     -8868.36610364
  atomic energy  EATOM  =     68656.39924158
  Solvation  Ediel_sol  =         0.00000000
  ---------------------------------------------------
  free energy    TOTEN  =      -966.61672152 eV

  energy without entropy =     -966.61672152  energy(sigma->0) =     -966.61672152


--------------------------------------------------------------------------------------------------------




--------------------------------------- Iteration      1(  12)  ---------------------------------------


    POTLOK:  cpu time      0.2153: real time      0.2171
    SETDIJ:  cpu time      0.0103: real time      0.0103
     EDDAV:  cpu time     18.8247: real time     18.9551
       DOS:  cpu time      0.0036: real time      0.0036
    CHARGE:  cpu time      0.2323: real time      0.2336
    MIXING:  cpu time      0.0128: real time      0.0129
    --------------------------------------------
      LOOP:  cpu time     19.2989: real time     19.4326

 eigenvalue-minimisations  :  5256
 total energy-change (2. order) : 0.2684825E-01  (-0.2876443E-01)
 number of electron     792.0002627 magnetization
 augmentation part      211.1805536 magnetization

 Broyden mixing:
  rms(total) = 0.53819E-01    rms(broyden)= 0.53734E-01
  rms(prec ) = 0.61852E-01
  weight for this iteration     100.00

 eigenvalues of (default mixing * dielectric matrix)
  average eigenvalue GAMMA=   1.2449
  2.5805  1.6262  1.6262  0.9974  0.6917  0.5961  0.5961

 Free energy of the ion-electron system (eV)
  ---------------------------------------------------
  alpha Z        PSCENC =      3563.47650690
  Ewald energy   TEWEN  =    -48587.19152358
  -Hartree energ DENC   =    -18738.63666255
  -exchange      EXHF   =         0.00000000
  -V(xc)+E(xc)   XCENC  =      3312.65117664
  PAW double counting   =     89223.99092376   -89525.81814087
  entropy T*S    EENTRO =        -0.00000000
  eigenvalues    EBANDS =     -8871.46139514
  atomic energy  EATOM  =     68656.39924158
  Solvation  Ediel_sol  =         0.00000000
  ---------------------------------------------------
  free energy    TOTEN  =      -966.58987327 eV

  energy without entropy =     -966.58987327  energy(sigma->0) =     -966.58987327


--------------------------------------------------------------------------------------------------------




--------------------------------------- Iteration      1(  13)  ---------------------------------------


    POTLOK:  cpu time      0.1937: real time      0.1956
    SETDIJ:  cpu time      0.0097: real time      0.0098
     EDDAV:  cpu time     18.9143: real time     19.0516
       DOS:  cpu time      0.0039: real time      0.0039
    CHARGE:  cpu time      0.2419: real time      0.2432
    MIXING:  cpu time      0.0133: real time      0.0134
    --------------------------------------------
      LOOP:  cpu time     19.3768: real time     19.5175

 eigenvalue-minimisations  :  5272
 total energy-change (2. order) : 0.6449430E-03  (-0.1397811E-02)
 number of electron     792.0002626 magnetization
 augmentation part      211.2263226 magnetization

 Broyden mixing:
  rms(total) = 0.23419E-01    rms(broyden)= 0.23412E-01
  rms(prec ) = 0.28339E-01
  weight for this iteration     100.00

 eigenvalues of (default mixing * dielectric matrix)
  average eigenvalue GAMMA=   1.2030
  2.5665  1.7054  1.7054  1.0071  0.7207  0.7207  0.5818  0.6165

 Free energy of the ion-electron system (eV)
  ---------------------------------------------------
  alpha Z        PSCENC =      3563.47650690
  Ewald energy   TEWEN  =    -48587.19152358
  -Hartree energ DENC   =    -18738.17612676
  -exchange      EXHF   =         0.00000000
  -V(xc)+E(xc)   XCENC  =      3312.65528570
  PAW double counting   =     89262.36844893   -89564.17097645
  entropy T*S    EENTRO =        -0.00000000
  eigenvalues    EBANDS =     -8871.95008464
  atomic energy  EATOM  =     68656.39924158
  Solvation  Ediel_sol  =         0.00000000
  ---------------------------------------------------
  free energy    TOTEN  =      -966.58922832 eV

  energy without entropy =     -966.58922832  energy(sigma->0) =     -966.58922832


--------------------------------------------------------------------------------------------------------




--------------------------------------- Iteration      1(  14)  ---------------------------------------


    POTLOK:  cpu time      0.1964: real time      0.1979
    SETDIJ:  cpu time      0.0106: real time      0.0106
     EDDAV:  cpu time     18.9594: real time     19.0910
       DOS:  cpu time      0.0041: real time      0.0041
    CHARGE:  cpu time      0.2331: real time      0.2343
    MIXING:  cpu time      0.0138: real time      0.0139
    --------------------------------------------
      LOOP:  cpu time     19.4174: real time     19.5519

 eigenvalue-minimisations  :  5312
 total energy-change (2. order) : 0.1613872E-03  (-0.1104430E-03)
 number of electron     792.0002626 magnetization
 augmentation part      211.2227703 magnetization

 Broyden mixing:
  rms(total) = 0.17807E-01    rms(broyden)= 0.17806E-01
  rms(prec ) = 0.21143E-01
  weight for this iteration     100.00

 eigenvalues of (default mixing * dielectric matrix)
  average eigenvalue GAMMA=   1.2512
  2.5185  2.0076  2.0076  1.0154  0.9577  0.9577  0.6568  0.5698  0.5698

 Free energy of the ion-electron system (eV)
  ---------------------------------------------------
  alpha Z        PSCENC =      3563.47650690
  Ewald energy   TEWEN  =    -48587.19152358
  -Hartree energ DENC   =    -18739.47767911
  -exchange      EXHF   =         0.00000000
  -V(xc)+E(xc)   XCENC  =      3312.73027142
  PAW double counting   =     89242.87475928   -89544.57205967
  entropy T*S    EENTRO =        -0.00000000
  eigenvalues    EBANDS =     -8870.82858374
  atomic energy  EATOM  =     68656.39924158
  Solvation  Ediel_sol  =         0.00000000
  ---------------------------------------------------
  free energy    TOTEN  =      -966.58906694 eV

  energy without entropy =     -966.58906694  energy(sigma->0) =     -966.58906694


--------------------------------------------------------------------------------------------------------




--------------------------------------- Iteration      1(  15)  ---------------------------------------


    POTLOK:  cpu time      0.2200: real time      0.2226
    SETDIJ:  cpu time      0.0090: real time      0.0090
     EDDAV:  cpu time     19.0377: real time     19.1663
       DOS:  cpu time      0.0040: real time      0.0040
    CHARGE:  cpu time      0.2352: real time      0.2365
    MIXING:  cpu time      0.0192: real time      0.0194
    --------------------------------------------
      LOOP:  cpu time     19.5250: real time     19.6577

 eigenvalue-minimisations  :  5336
 total energy-change (2. order) : 0.1480863E-04  (-0.1362072E-03)
 number of electron     792.0002626 magnetization
 augmentation part      211.2314775 magnetization

 Broyden mixing:
  rms(total) = 0.83661E-02    rms(broyden)= 0.83620E-02
  rms(prec ) = 0.10131E-01
  weight for this iteration     100.00

 eigenvalues of (default mixing * dielectric matrix)
  average eigenvalue GAMMA=   1.2347
  2.6668  2.3261  2.0750  0.9268  0.9268  0.8374  0.8374  0.6019  0.5741  0.5741

 Free energy of the ion-electron system (eV)
  ---------------------------------------------------
  alpha Z        PSCENC =      3563.47650690
  Ewald energy   TEWEN  =    -48587.19152358
  -Hartree energ DENC   =    -18740.67613583
  -exchange      EXHF   =         0.00000000
  -V(xc)+E(xc)   XCENC  =      3312.79954145
  PAW double counting   =     89226.89620090   -89528.42494983
  entropy T*S    EENTRO =        -0.00000000
  eigenvalues    EBANDS =     -8869.86793371
  atomic energy  EATOM  =     68656.39924158
  Solvation  Ediel_sol  =         0.00000000
  ---------------------------------------------------
  free energy    TOTEN  =      -966.58905213 eV

  energy without entropy =     -966.58905213  energy(sigma->0) =     -966.58905213


--------------------------------------------------------------------------------------------------------




--------------------------------------- Iteration      1(  16)  ---------------------------------------


    POTLOK:  cpu time      0.2138: real time      0.2160
    SETDIJ:  cpu time      0.0179: real time      0.0180
     EDDAV:  cpu time     18.7904: real time     18.9243
       DOS:  cpu time      0.0049: real time      0.0049
    CHARGE:  cpu time      0.2313: real time      0.2326
    MIXING:  cpu time      0.0144: real time      0.0145
    --------------------------------------------
      LOOP:  cpu time     19.2726: real time     19.4103

 eigenvalue-minimisations  :  5264
 total energy-change (2. order) : 0.4663029E-04  (-0.6937601E-04)
 number of electron     792.0002626 magnetization
 augmentation part      211.2436780 magnetization

 Broyden mixing:
  rms(total) = 0.45099E-02    rms(broyden)= 0.45063E-02
  rms(prec ) = 0.51873E-02
  weight for this iteration     100.00

 eigenvalues of (default mixing * dielectric matrix)
  average eigenvalue GAMMA=   1.2265
  2.7857  2.4354  1.8702  0.8924  0.8924  1.0312  1.0312  0.7968  0.6152  0.6152
  0.5261

 Free energy of the ion-electron system (eV)
  ---------------------------------------------------
  alpha Z        PSCENC =      3563.47650690
  Ewald energy   TEWEN  =    -48587.19152358
  -Hartree energ DENC   =    -18741.11396847
  -exchange      EXHF   =         0.00000000
  -V(xc)+E(xc)   XCENC  =      3312.83563341
  PAW double counting   =     89228.72515048   -89530.23444872
  entropy T*S    EENTRO =        -0.00000000
  eigenvalues    EBANDS =     -8869.48559710
  atomic energy  EATOM  =     68656.39924158
  Solvation  Ediel_sol  =         0.00000000
  ---------------------------------------------------
  free energy    TOTEN  =      -966.58900550 eV

  energy without entropy =     -966.58900550  energy(sigma->0) =     -966.58900550


--------------------------------------------------------------------------------------------------------




--------------------------------------- Iteration      1(  17)  ---------------------------------------


    POTLOK:  cpu time      0.2291: real time      0.2316
    SETDIJ:  cpu time      0.0083: real time      0.0083
     EDDAV:  cpu time     18.8210: real time     18.9518
       DOS:  cpu time      0.0059: real time      0.0059
    CHARGE:  cpu time      0.2374: real time      0.2388
    MIXING:  cpu time      0.0151: real time      0.0152
    --------------------------------------------
      LOOP:  cpu time     19.3168: real time     19.4516

 eigenvalue-minimisations  :  5296
 total energy-change (2. order) :-0.1167966E-05  (-0.1816176E-04)
 number of electron     792.0002626 magnetization
 augmentation part      211.2412554 magnetization

 Broyden mixing:
  rms(total) = 0.24232E-02    rms(broyden)= 0.24206E-02
  rms(prec ) = 0.29913E-02
  weight for this iteration     100.00

 eigenvalues of (default mixing * dielectric matrix)
  average eigenvalue GAMMA=   1.1728
  2.8565  2.3765  1.9029  1.0740  1.0740  0.8992  0.8992  0.6340  0.6340  0.6275
  0.5481  0.5481

 Free energy of the ion-electron system (eV)
  ---------------------------------------------------
  alpha Z        PSCENC =      3563.47650690
  Ewald energy   TEWEN  =    -48587.19152358
  -Hartree energ DENC   =    -18741.42335442
  -exchange      EXHF   =         0.00000000
  -V(xc)+E(xc)   XCENC  =      3312.85220311
  PAW double counting   =     89225.26403412   -89526.77910247
  entropy T*S    EENTRO =        -0.00000000
  eigenvalues    EBANDS =     -8869.18701191
  atomic energy  EATOM  =     68656.39924158
  Solvation  Ediel_sol  =         0.00000000
  ---------------------------------------------------
  free energy    TOTEN  =      -966.58900667 eV

  energy without entropy =     -966.58900667  energy(sigma->0) =     -966.58900667


--------------------------------------------------------------------------------------------------------




--------------------------------------- Iteration      1(  18)  ---------------------------------------


    POTLOK:  cpu time      0.1721: real time      0.1739
    SETDIJ:  cpu time      0.0217: real time      0.0218
     EDDAV:  cpu time     18.6960: real time     18.8269
       DOS:  cpu time      0.0042: real time      0.0042
    CHARGE:  cpu time      0.2336: real time      0.2349
    MIXING:  cpu time      0.0186: real time      0.0188
    --------------------------------------------
      LOOP:  cpu time     19.1461: real time     19.2805

 eigenvalue-minimisations  :  5224
 total energy-change (2. order) :-0.1170411E-05  (-0.2053410E-05)
 number of electron     792.0002626 magnetization
 augmentation part      211.2420992 magnetization

 Broyden mixing:
  rms(total) = 0.24370E-02    rms(broyden)= 0.24369E-02
  rms(prec ) = 0.29209E-02
  weight for this iteration     100.00

 eigenvalues of (default mixing * dielectric matrix)
  average eigenvalue GAMMA=   1.1767
  2.9231  2.3494  1.8680  1.3403  1.0546  0.8309  0.8309  0.8914  0.8914  0.6558
  0.5865  0.5865  0.4886

 Free energy of the ion-electron system (eV)
  ---------------------------------------------------
  alpha Z        PSCENC =      3563.47650690
  Ewald energy   TEWEN  =    -48587.19152358
  -Hartree energ DENC   =    -18741.38531851
  -exchange      EXHF   =         0.00000000
  -V(xc)+E(xc)   XCENC  =      3312.84919035
  PAW double counting   =     89226.69700893   -89528.21803992
[...]
      7.58456      3.79228      1.99678     0.00940 -0.01201 -2.88589 ( -0.63497  6.00000)
      7.58456      7.58456      1.99678     0.00941  0.01201 -2.88589 ( -0.63497  6.00000)
      0.00000      1.89614      0.40437     0.00001  0.00058 -2.89438 ( -0.63482  6.00000)
      0.00000      5.68842      0.40437    -0.00001 -0.00001 -2.88968 ( -0.63478  6.00000)
      0.00000      9.48070      0.40437    -0.00002 -0.00060 -2.89438 ( -0.63482  6.00000)
      3.79228      1.89614      0.40437    -0.00272  0.00243 -2.89985 ( -0.63482  6.00000)
      3.79228      5.68842      0.40437    -0.00750 -0.00000 -2.90062 ( -0.63466  6.00000)
      3.79228      9.48070      0.40437    -0.00272 -0.00247 -2.89985 ( -0.63482  6.00000)
      7.58456      1.89614      0.40437     0.00269  0.00245 -2.89985 ( -0.63482  6.00000)
      7.58456      5.68842      0.40437     0.00748  0.00000 -2.90062 ( -0.63466  6.00000)
      7.58456      9.48070      0.40437     0.00268 -0.00245 -2.89984 ( -0.63482  6.00000)
      1.89614      1.89614      2.80551    -0.00499 -0.00023 -2.88916 ( -0.63486  6.00000)
      1.89614      5.68842      2.80551     0.01504  0.00001 -2.89370 ( -0.63477  6.00000)
      1.89614      9.48070      2.80551    -0.00500  0.00023 -2.88915 ( -0.63486  6.00000)
      5.68842      1.89614      2.80551    -0.00000 -0.00311 -2.87962 ( -0.63488  6.00000)
      5.68842      5.68842      2.80551    -0.00000 -0.00002 -3.08415 ( -0.63908  6.00000)
      5.68842      9.48070      2.80551    -0.00002  0.00314 -2.87964 ( -0.63488  6.00000)
      9.48070      1.89614      2.80551     0.00500 -0.00023 -2.88913 ( -0.63486  6.00000)
      9.48070      5.68842      2.80551    -0.01504  0.00001 -2.89370 ( -0.63477  6.00000)
      9.48070      9.48070      2.80551     0.00500  0.00021 -2.88914 ( -0.63486  6.00000)
 -----------------------------------------------------------------------------------------
    total drift (improves with k-points):  -0.00016 -0.00018 -0.06739




--------------------------------------------------------------------------------------------------------




 MACROSCOPIC STATIC DIELECTRIC TENSOR (including local field effects in DFT)
 ------------------------------------------------------
           6.938672    -0.000002     0.000006
          -0.000005     6.979314     0.000002
           0.000001     0.000001     6.371085
 ------------------------------------------------------



--------------------------------------------------------------------------------------------------------




--------------------------------------------------------------------------------------------------------




 MACROSCOPIC STATIC DIELECTRIC TENSOR (including local field effects in DFT)
 ------------------------------------------------------
           6.938672    -0.000002     0.000006
          -0.000005     6.979314     0.000002
           0.000001     0.000001     6.371085
 ------------------------------------------------------


 PIEZOELECTRIC TENSOR (including local field effects)  for field in x, y, z        (e  Angst)
          XX          YY          ZZ          XY          YZ          ZX
  --------------------------------------------------------------------------------
  x    -0.00196     0.00236     0.00026     0.00007     0.00019    -0.02872
  y    -0.00011    -0.00037     0.00099    -0.00026    -0.08295     0.00020
  z    -0.56269    -0.69420     0.14701    -0.00001     0.00018    -0.00016

 PIEZOELECTRIC TENSOR (including local field effects)  for field in x, y, z        (C/m^2)
          XX          YY          ZZ          XY          YZ          ZX
  --------------------------------------------------------------------------------
  x    -0.00003     0.00003     0.00000     0.00000     0.00000    -0.00037
  y    -0.00000    -0.00000     0.00001    -0.00000    -0.00107     0.00000
  z    -0.00725    -0.00895     0.00189    -0.00000     0.00000    -0.00000

 BORN EFFECTIVE CHARGES (including local field effects) (in |e|, cummulative output)
 ---------------------------------------------------------------------------------
 ion    1
    1     6.64325    -0.00349     0.00041
    2     0.00316     6.67734    -0.00041
    3    -0.00765    -0.00873     5.78812
 ion    2
    1     6.61395     0.00001    -0.00113
    2    -0.00002     6.66149     0.00001
    3    -0.02427     0.00000     5.80875
 ion    3
    1     6.64325     0.00352     0.00041
    2    -0.00323     6.67733     0.00042
    3    -0.00764     0.00869     5.78809
 ion    4
    1     6.65414    -0.00002     0.00003
    2    -0.00002     6.68684     0.00047
    3     0.00002    -0.02158     5.75942
 ion    5
    1     6.96122    -0.00003     0.00003
    2    -0.00004     6.29539    -0.00003
    3     0.00004     0.00002     5.77997
 ion    6
    1     6.65412    -0.00004     0.00000
    2    -0.00003     6.68684    -0.00050
    3     0.00002     0.02157     5.75943
 ion    7
    1     6.64324     0.00354    -0.00041
    2    -0.00319     6.67732    -0.00041
    3     0.00762    -0.00871     5.78810
 ion    8
    1     6.61394     0.00001     0.00109
    2     0.00002     6.66147     0.00001
    3     0.02429    -0.00002     5.80878
 ion    9
    1     6.64325    -0.00352    -0.00041
    2     0.00315     6.67737     0.00042
    3     0.00763     0.00873     5.78811
 ion   10
    1     6.64894    -0.00000     0.00008
    2    -0.00001     6.67053     0.00004
    3     0.00004     0.00001     5.78733
 ion   11
    1     6.63765    -0.00462    -0.00002
    2     0.02955     6.64189     0.00043
    3     0.02510    -0.00285     5.78926
 ion   12
    1     6.63772     0.00461     0.00000
    2    -0.02955     6.64188    -0.00040
    3     0.02508     0.00285     5.78925
 ion   13
    1     6.65421     0.00000     0.00003
    2    -0.00001     6.69467     0.00000
    3     0.00000     0.00000     5.78532
 ion   14
    1     6.62862     0.00002     0.00003
    2     0.00004     6.88080     0.00924
    3     0.00001     0.06546     5.78519
 ion   15
    1     6.62864    -0.00001     0.00007
    2    -0.00001     6.88083    -0.00919
    3     0.00002    -0.06543     5.78522
 ion   16
    1     6.64894    -0.00002     0.00001
    2     0.00000     6.67052     0.00002
    3    -0.00002     0.00004     5.78733
 ion   17
    1     6.63768     0.00454     0.00008
    2    -0.02953     6.64189     0.00042
    3    -0.02505    -0.00285     5.78924
 ion   18
    1     6.63772    -0.00457     0.00010
    2     0.02952     6.64185    -0.00040
    3    -0.02504     0.00289     5.78927
 ion   19
    1     6.65261    -0.00003    -0.00002
    2     0.00002     6.66125    -0.00004
    3    -0.00003     0.00001     5.78703
 ion   20
    1     6.65182    -0.00003     0.00004
    2     0.00000     6.64698    -0.00006
    3    -0.00001     0.00055     5.77562
 ion   21
    1     6.65179     0.00003    -0.00000
    2    -0.00001     6.64694     0.00004
    3    -0.00001    -0.00055     5.77562
 ion   22
    1     6.67423    -0.00001     0.00011
    2    -0.00003     6.66852    -0.00001
    3     0.00119     0.00003     5.79798
 ion   23
    1     6.70316    -0.01517    -0.00129
    2     0.01488     6.61812     0.00162
    3     0.01645     0.01546     5.78332
 ion   24
    1     6.70319     0.01515    -0.00133
    2    -0.01491     6.61816    -0.00164
    3     0.01638    -0.01545     5.78333
 ion   25
    1     6.67425    -0.00002    -0.00012
    2    -0.00004     6.66853    -0.00001
    3    -0.00123    -0.00001     5.79797
 ion   26
    1     6.70316     0.01517     0.00135
    2    -0.01491     6.61815     0.00164
    3    -0.01643     0.01548     5.78333
 ion   27
    1     6.70322    -0.01518     0.00132
    2     0.01489     6.61814    -0.00166
    3    -0.01645    -0.01546     5.78336
 ion   28
    1     6.64962     0.00001    -0.00002
    2    -0.00000     6.67228    -0.00005
    3     0.00002    -0.00098     5.78717
 ion   29
    1     6.62686    -0.00003    -0.00005
    2    -0.00002     6.65790     0.00003
    3     0.00000     0.00002     5.78630
 ion   30
    1     6.64961     0.00001    -0.00003
    2     0.00003     6.67232     0.00005
    3     0.00003     0.00095     5.78719
 ion   31
    1     6.68053    -0.03081    -0.00065
    2     0.00462     6.68275     0.00007
    3    -0.00268     0.02204     5.78906
 ion   32
    1     6.41653    -0.00000    -0.00905
    2    -0.00001     6.68255    -0.00002
    3     0.03341     0.00000     5.78497
 ion   33
    1     6.68052     0.03077    -0.00062
    2    -0.00459     6.68275    -0.00005
    3    -0.00264    -0.02201     5.78904
 ion   34
    1     6.68050     0.03078     0.00057
    2    -0.00458     6.68278     0.00005
    3     0.00270     0.02201     5.78901
 ion   35
    1     6.41651    -0.00001     0.00894
    2    -0.00001     6.68256    -0.00003
    3    -0.03340    -0.00001     5.78498
 ion   36
    1     6.68052    -0.03082     0.00052
    2     0.00459     6.68278    -0.00008
    3     0.00271    -0.02205     5.78904
 ion   37
    1    -5.52798     0.00000     0.00003
    2    -0.00000    -1.12723    -0.00196
    3    -0.00000     0.00082    -2.89212
 ion   38
    1    -5.49612     0.00002     0.00004
    2     0.00002    -1.11742    -0.00001
    3    -0.00002    -0.00001    -2.89498
 ion   39
    1    -5.52801    -0.00001     0.00002
    2     0.00001    -1.12723     0.00196
    3     0.00001    -0.00083    -2.89211
 ion   40
    1    -5.52499     0.00347     0.00990
    2    -0.00951    -1.12411    -0.00243
    3     0.00520     0.00150    -2.89323
 ion   41
    1    -5.60906    -0.00000     0.01483
    2     0.00001    -1.11833     0.00002
    3     0.06222    -0.00001    -2.87161
 ion   42
    1    -5.52494    -0.00345     0.00993
    2     0.00954    -1.12411     0.00242
    3     0.00519    -0.00151    -2.89323
 ion   43
    1    -5.52492    -0.00343    -0.00990
    2     0.00953    -1.12412    -0.00242
    3    -0.00523     0.00150    -2.89324
 ion   44
    1    -5.60906    -0.00000    -0.01478
    2    -0.00001    -1.11836    -0.00000
    3    -0.06226    -0.00001    -2.87162
 ion   45
    1    -5.52493     0.00345    -0.00987
    2    -0.00949    -1.12412     0.00243
    3    -0.00523    -0.00150    -2.89325
 ion   46
    1    -1.11805    -0.00063     0.00013
    2    -0.00114    -5.54583     0.00067
    3    -0.00053    -0.00455    -2.89981
 ion   47
    1    -1.11376    -0.00001    -0.00027
    2     0.00002    -5.50113    -0.00001
    3    -0.00302     0.00001    -2.90884
 ion   48
    1    -1.11804     0.00064     0.00012
    2     0.00117    -5.54581    -0.00073
    3    -0.00053     0.00454    -2.89982
 ion   49
    1    -1.12871    -0.00002    -0.00003
    2    -0.00002    -5.59913    -0.00146
    3    -0.00002     0.01612    -2.89709
 ion   50
    1    -1.17394    -0.00003    -0.00003
    2    -0.00001    -5.81545    -0.00003
    3    -0.00004    -0.00002    -2.69056
 ion   51
    1    -1.12869     0.00001    -0.00003
    2     0.00000    -5.59917     0.00142
    3    -0.00003    -0.01610    -2.89708
 ion   52
    1    -1.11804     0.00064    -0.00012
    2     0.00115    -5.54582     0.00067
    3     0.00051    -0.00456    -2.89979
 ion   53
    1    -1.11377     0.00001     0.00027
    2     0.00000    -5.50111    -0.00001
    3     0.00300    -0.00000    -2.90883
 ion   54
    1    -1.11804    -0.00063    -0.00012
    2    -0.00113    -5.54580    -0.00073
    3     0.00053     0.00452    -2.89980
 ion   55
    1    -1.11935     0.00001    -0.00198
    2     0.00003    -5.54786     0.00000
    3     0.00074     0.00001    -2.89603
 ion   56
    1    -1.12111     0.01014    -0.00291
    2    -0.00318    -5.54645     0.00887
    3     0.00178     0.00727    -2.89638
 ion   57
    1    -1.12112    -0.01013    -0.00291
    2     0.00315    -5.54646    -0.00885
    3     0.00180    -0.00725    -2.89638
 ion   58
    1    -1.12814     0.00004     0.00002
    2     0.00001    -5.57448     0.00002
    3     0.00001     0.00001    -2.89223
 ion   59
    1    -1.13042     0.00001     0.00001
    2     0.00000    -5.40848    -0.00668
    3     0.00002     0.05571    -2.90835
 ion   60
    1    -1.13044     0.00005     0.00003
    2     0.00003    -5.40850     0.00671
    3     0.00003    -0.05571    -2.90835
 ion   61
    1    -1.11934    -0.00000     0.00199
    2    -0.00001    -5.54787    -0.00000
    3    -0.00072    -0.00003    -2.89602
 ion   62
    1    -1.12111    -0.01012     0.00294
    2     0.00317    -5.54645     0.00887
    3    -0.00177     0.00728    -2.89636
 ion   63
    1    -1.12111     0.01015     0.00293
    2    -0.00317    -5.54645    -0.00883
    3    -0.00178    -0.00727    -2.89637
 ion   64
    1    -5.53052     0.00001    -0.00003
    2     0.00002    -1.12385     0.00001
    3    -0.00000    -0.00001    -2.89396
 ion   65
    1    -5.52782     0.00002    -0.00007
    2     0.00000    -1.12165     0.00357
    3    -0.00002     0.00102    -2.89182
 ion   66
    1    -5.52783    -0.00000    -0.00005
    2     0.00001    -1.12162    -0.00359
    3    -0.00001    -0.00104    -2.89182
 ion   67
    1    -5.53084     0.00002    -0.00540
    2     0.00002    -1.12340    -0.00002
    3     0.00578    -0.00002    -2.90041
 ion   68
    1    -5.51173     0.00722    -0.02750
    2    -0.06609    -1.12620     0.01431
    3    -0.01953    -0.01188    -2.89821
 ion   69
    1    -5.51179    -0.00723    -0.02758
    2     0.06606    -1.12621    -0.01434
    3    -0.01950     0.01186    -2.89822
 ion   70
    1    -5.53082    -0.00001     0.00532
    2     0.00001    -1.12341    -0.00002
    3    -0.00579     0.00000    -2.90039
 ion   71
    1    -5.51175    -0.00718     0.02743
    2     0.06607    -1.12619     0.01433
    3     0.01949    -0.01189    -2.89823
 ion   72
    1    -5.51180     0.00722     0.02748
    2    -0.06603    -1.12621    -0.01430
    3     0.01949     0.01188    -2.89825
 ion   73
    1    -5.53411    -0.00000     0.00047
    2    -0.00001    -1.12457     0.00001
    3     0.00118     0.00001    -2.89364
 ion   74
    1    -5.52964     0.00137     0.00056
    2    -0.00831    -1.12032     0.00484
    3     0.00225    -0.00278    -2.88812
 ion   75
    1    -5.52962    -0.00137     0.00059
    2     0.00827    -1.12033    -0.00486
    3     0.00229     0.00279    -2.88810
 ion   76
    1    -5.56098     0.00000    -0.00003
    2     0.00001    -1.12594    -0.00001
    3     0.00002     0.00000    -2.89668
 ion   77
    1    -5.60887    -0.00001    -0.00003
    2    -0.00003    -1.12662     0.02949
    3    -0.00002    -0.00749    -2.88245
 ion   78
    1    -5.60892     0.00002    -0.00002
    2    -0.00001    -1.12662    -0.02950
    3     0.00002     0.00751    -2.88249
 ion   79
    1    -5.53413    -0.00000    -0.00048
    2    -0.00001    -1.12455    -0.00000
    3    -0.00116     0.00001    -2.89364
 ion   80
    1    -5.52962    -0.00139    -0.00064
    2     0.00828    -1.12032     0.00484
    3    -0.00228    -0.00277    -2.88811
 ion   81
    1    -5.52965     0.00135    -0.00061
    2    -0.00829    -1.12032    -0.00485
    3    -0.00228     0.00277    -2.88811
 ion   82
    1    -1.12067     0.00000    -0.00000
    2     0.00001    -5.54494     0.00002
    3    -0.00001    -0.00001    -2.89261
 ion   83
    1    -1.12178     0.00001     0.00001
    2     0.00001    -5.54178    -0.00553
    3     0.00001     0.00592    -2.88682
 ion   84
    1    -1.12175    -0.00000    -0.00001
    2    -0.00003    -5.54181     0.00555
    3     0.00002    -0.00592    -2.88681
 ion   85
    1    -1.12531     0.00001     0.00375
    2     0.00001    -5.54783    -0.00001
    3     0.00103    -0.00001    -2.89593
 ion   86
    1    -1.11924     0.06849     0.01660
    2    -0.00715    -5.55781    -0.02792
    3    -0.00940    -0.01200    -2.88526
 ion   87
    1    -1.11923    -0.06848     0.01662
    2     0.00716    -5.55783     0.02794
    3    -0.00939     0.01201    -2.88527
 ion   88
    1    -1.12530     0.00001    -0.00372
    2     0.00002    -5.54785     0.00005
    3    -0.00101     0.00002    -2.89595
 ion   89
    1    -1.11923    -0.06848    -0.01661
    2     0.00717    -5.55788    -0.02789
    3     0.00940    -0.01200    -2.88527
 ion   90
    1    -1.11923     0.06851    -0.01661
    2    -0.00713    -5.55786     0.02794
    3     0.00941     0.01201    -2.88527
 ion   91
    1    -1.12027     0.00002    -0.00001
    2    -0.00003    -5.53954     0.00036
    3     0.00001     0.00058    -2.89376
 ion   92
    1    -1.11895     0.00000     0.00001
    2     0.00004    -5.51387     0.00000
    3    -0.00001    -0.00001    -2.88905
 ion   93
    1    -1.12028    -0.00000    -0.00002
    2    -0.00001    -5.53961    -0.00031
    3    -0.00002    -0.00059    -2.89376
 ion   94
    1    -1.12658     0.00832     0.00528
    2    -0.00116    -5.54469     0.00045
    3    -0.00272     0.00243    -2.89922
 ion   95
    1    -1.12062     0.00001     0.03059
    2    -0.00000    -5.46592     0.00001
    3    -0.00750    -0.00000    -2.89999
 ion   96
    1    -1.12657    -0.00834     0.00525
    2     0.00116    -5.54469    -0.00044
    3    -0.00272    -0.00247    -2.89923
 ion   97
    1    -1.12657    -0.00832    -0.00528
    2     0.00117    -5.54470     0.00046
    3     0.00269     0.00245    -2.89922
 ion   98
    1    -1.12061    -0.00001    -0.03058
    2    -0.00001    -5.46594     0.00003
    3     0.00749     0.00000    -2.89999
 ion   99
    1    -1.12657     0.00834    -0.00528
    2    -0.00116    -5.54465    -0.00043
    3     0.00268    -0.00245    -2.89922
 ion  100
    1    -5.52828     0.00102     0.00061
    2     0.00044    -1.12897     0.00024
    3    -0.00499    -0.00023    -2.88853
 ion  101
    1    -5.47194     0.00002    -0.00314
    2     0.00002    -1.11418    -0.00002
    3     0.01504     0.00002    -2.89307
 ion  102
    1    -5.52826    -0.00104     0.00064
    2    -0.00043    -1.12896    -0.00025
    3    -0.00500     0.00024    -2.88852
 ion  103
    1    -5.57562    -0.00003     0.00004
    2    -0.00001    -1.13309     0.00075
    3     0.00000    -0.00311    -2.87900
 ion  104
    1    -5.24852    -0.00002     0.00003
    2    -0.00001    -1.05453    -0.00003
    3    -0.00000    -0.00002    -3.08353
 ion  105
    1    -5.57561     0.00003     0.00003
    2     0.00003    -1.13308    -0.00075
    3    -0.00002     0.00314    -2.87901
 ion  106
    1    -5.52827    -0.00106    -0.00059
    2    -0.00044    -1.12894     0.00022
    3     0.00500    -0.00023    -2.88850
 ion  107
    1    -5.47196     0.00000     0.00324
    2     0.00003    -1.11418    -0.00001
    3    -0.01504     0.00001    -2.89307
 ion  108
    1    -5.52827     0.00105    -0.00056
    2     0.00043    -1.12896    -0.00027
    3     0.00501     0.00022    -2.88851


--------------------------------------------------------------------------------------------------------


     LOOP+:  cpu time   1827.7150: real time   1871.5950
    4ORBIT:  cpu time      0.0000: real time      0.0000

 total amount of memory used by VASP MPI-rank0   266716. kBytes
=======================================================================

   base      :      30000. kBytes
   nonlr-proj:      19547. kBytes
   fftplans  :      10927. kBytes
   grid      :      23181. kBytes
   one-center:       1679. kBytes
   wavefun   :     181382. kBytes



 General timing and accounting informations for this job:
 ========================================================

                  Total CPU time used (sec):     1844.143
                            User time (sec):     1784.151
                          System time (sec):       59.991
                         Elapsed time (sec):     1919.728

                   Maximum memory used (kb):     1082804.
                   Average memory used (kb):          N/A

                          Minor page faults:      2567209
                          Major page faults:           13
                 Voluntary context switches:       134250
