 vasp.6.3.0 20Jan22 (build Mar 29 2022 16:24:06) complex

 executed on             Bridges2 date 2023.01.10  17:42:34
 running on   32 total cores
 distrk:  each k-point on    4 cores,    8 groups
 distr:  one band on NCORE=   1 cores,    4 groups


--------------------------------------------------------------------------------------------------------


 INCAR:
   ICHARG = 2
   LWAVE = .FALSE.
   LCHARG = .FALSE.
   LVTOT = .FALSE.
   NCORE = 1
   KPAR = 8
   EDIFF = 1E-7
   NELM = 80
   PREC = Normal
   LREAL = Auto
   NELMIN = 4
   ENCUT = 400.0 eV
   ISPIN = 1
   ISMEAR = 0
   SIGMA = 0.10
   NSW = 0
   LEPSILON = .TRUE.
   LPEAD = .TRUE.
   ISYM = 0

 POTCAR:    PAW_PBE Ti_pv 07Sep2000
 POTCAR:    PAW_PBE O 08Apr2002
 -----------------------------------------------------------------------------
|                                                                             |
|           W    W    AA    RRRRR   N    N  II  N    N   GGGG   !!!           |
|           W    W   A  A   R    R  NN   N  II  NN   N  G    G  !!!           |
|           W    W  A    A  R    R  N N  N  II  N N  N  G       !!!           |
|           W WW W  AAAAAA  RRRRR   N  N N  II  N  N N  G  GGG   !            |
|           WW  WW  A    A  R   R   N   NN  II  N   NN  G    G                |
|           W    W  A    A  R    R  N    N  II  N    N   GGGG   !!!           |
|                                                                             |
|     For optimal performance we recommend to set                             |
|       NCORE = 2 up to number-of-cores-per-socket                            |
|     NCORE specifies how many cores store one orbital (NPAR=cpu/NCORE).      |
|     This setting can greatly improve the performance of VASP for DFT.       |
|     The default, NCORE=1 might be grossly inefficient on modern             |
|     multi-core architectures or massively parallel machines. Do your        |
|     own testing! More info at https://www.vasp.at/wiki/index.php/NCORE      |
|     Unfortunately you need to use the default for GW and RPA                |
|     calculations (for HF NCORE is supported but not extensively tested      |
|     yet).                                                                   |
|                                                                             |
 -----------------------------------------------------------------------------

 POTCAR:    PAW_PBE Ti_pv 07Sep2000
   VRHFIN =Ti: d3 s1
   LEXCH  = PE
   EATOM  =  1042.5995 eV,   76.6289 Ry

   TITEL  = PAW_PBE Ti_pv 07Sep2000
   LULTRA =        F    use ultrasoft PP ?
   IUNSCR =        1    unscreen: 0-lin 1-nonlin 2-no
   RPACOR =    2.200    partial core radius
   POMASS =   47.880; ZVAL   =   10.000    mass and valenz
   RCORE  =    2.500    outmost cutoff radius
   RWIGS  =    2.500; RWIGS  =    1.323    wigner-seitz radius (au A)
   ENMAX  =  222.335; ENMIN  =  166.751 eV
   RCLOC  =    1.701    cutoff for local pot
   LCOR   =        T    correct aug charges
   LPAW   =        T    paw PP
   EAUG   =  482.848
   DEXC   =    0.000
   RMAX   =    2.564    core radius for proj-oper
   RAUG   =    1.300    factor for augmentation sphere
   RDEP   =    2.538    radius for radial grids
   RDEPT  =    1.952    core radius for aug-charge

   Atomic configuration
    8 entries
     n  l   j            E        occ.
     1  0  0.50     -4865.3608   2.0000
     2  0  0.50      -533.1368   2.0000
     2  1  1.50      -440.5031   6.0000
     3  0  0.50       -59.3186   2.0000
     3  1  1.50       -35.7012   6.0000
     3  2  2.50        -1.9157   3.0000
     4  0  0.50        -3.7291   1.0000
     4  3  2.50        -1.3606   0.0000
   Description
     l       E           TYP  RCUT    TYP  RCUT
     1    -35.7012140     23  2.300
     1     -1.3605826     23  2.300
     2     -1.9156996     23  2.500
     2     -0.4063033     23  2.500
     0     -3.7290856     23  2.500
     0     20.4087390     23  2.500
  local pseudopotential read in
  partial core-charges read in
  partial kinetic energy density read in
  atomic valenz-charges read in
  non local Contribution for L=           1  read in
    real space projection operators read in
  non local Contribution for L=           1  read in
    real space projection operators read in
  non local Contribution for L=           2  read in
    real space projection operators read in
  non local Contribution for L=           2  read in
    real space projection operators read in
  non local Contribution for L=           0  read in
    real space projection operators read in
  non local Contribution for L=           0  read in
    real space projection operators read in
    PAW grid and wavefunctions read in

   number of l-projection  operators is LMAX  =           6
   number of lm-projection operators is LMMAX =          18

 POTCAR:    PAW_PBE O 08Apr2002
   VRHFIN =O: s2p4
   LEXCH  = PE
   EATOM  =   432.3788 eV,   31.7789 Ry

   TITEL  = PAW_PBE O 08Apr2002
   LULTRA =        F    use ultrasoft PP ?
   IUNSCR =        1    unscreen: 0-lin 1-nonlin 2-no
   RPACOR =    1.200    partial core radius
   POMASS =   16.000; ZVAL   =    6.000    mass and valenz
   RCORE  =    1.520    outmost cutoff radius
   RWIGS  =    1.550; RWIGS  =    0.820    wigner-seitz radius (au A)
   ENMAX  =  400.000; ENMIN  =  300.000 eV
   ICORE  =        2    local potential
   LCOR   =        T    correct aug charges
   LPAW   =        T    paw PP
   EAUG   =  605.392
   DEXC   =    0.000
   RMAX   =    1.553    core radius for proj-oper
   RAUG   =    1.300    factor for augmentation sphere
   RDEP   =    1.550    radius for radial grids
   RDEPT  =    1.329    core radius for aug-charge

   Atomic configuration
    4 entries
     n  l   j            E        occ.
     1  0  0.50      -514.6923   2.0000
     2  0  0.50       -23.9615   2.0000
     2  1  0.50        -9.0305   4.0000
     3  2  1.50        -9.5241   0.0000
   Description
     l       E           TYP  RCUT    TYP  RCUT
     0    -23.9615318     23  1.200
     0     -9.5240782     23  1.200
     1     -9.0304911     23  1.520
     1      8.1634956     23  1.520
     2     -9.5240782      7  1.500
  local pseudopotential read in
  partial core-charges read in
  partial kinetic energy density read in
  kinetic energy density of atom read in
  atomic valenz-charges read in
  non local Contribution for L=           0  read in
    real space projection operators read in
  non local Contribution for L=           0  read in
    real space projection operators read in
  non local Contribution for L=           1  read in
    real space projection operators read in
  non local Contribution for L=           1  read in
    real space projection operators read in
    PAW grid and wavefunctions read in

   number of l-projection  operators is LMAX  =           4
   number of lm-projection operators is LMMAX =           8

 Optimization of the real space projectors (new method)

 maximal supplied QI-value         = 15.12
 optimisation between [QCUT,QGAM] = [ 10.13, 20.41] = [ 28.73,116.64] Ry
 Optimized for a Real-space Cutoff    1.51 Angstroem

   l    n(q)    QCUT    max X(q) W(low)/X(q) W(high)/X(q)  e(spline)
   1      9    10.129     4.216    0.12E-04    0.72E-04    0.60E-07
   1      9    10.129     5.422    0.84E-04    0.21E-03    0.15E-06
   2      8    10.129    72.084    0.33E-03    0.35E-04    0.17E-06
   2      8    10.129    65.965    0.33E-03    0.37E-04    0.17E-06
   0      9    10.129    41.531    0.17E-03    0.19E-03    0.81E-07
   0      9    10.129    16.290    0.12E-03    0.14E-03    0.64E-07
 Optimization of the real space projectors (new method)

 maximal supplied QI-value         = 24.76
 optimisation between [QCUT,QGAM] = [ 10.15, 20.30] = [ 28.85,115.39] Ry
 Optimized for a Real-space Cutoff    1.38 Angstroem

   l    n(q)    QCUT    max X(q) W(low)/X(q) W(high)/X(q)  e(spline)
   0      8    10.150    20.381    0.22E-03    0.32E-03    0.29E-06
   0      8    10.150    15.268    0.23E-03    0.35E-03    0.30E-06
   1      8    10.150     5.964    0.46E-03    0.53E-03    0.21E-06
   1      8    10.150     5.382    0.38E-03    0.45E-03    0.19E-06
  PAW_PBE Ti_pv 07Sep2000               :
 energy of atom  1       EATOM=-1042.5995
 kinetic energy error for atom=    0.0037 (will be added to EATOM!!)
  PAW_PBE O 08Apr2002                   :
 energy of atom  2       EATOM= -432.3788
 kinetic energy error for atom=    0.1156 (will be added to EATOM!!)


 POSCAR: Ti4 O8
  positions in cartesian coordinates
  No initial velocities read in
 exchange correlation table for  LEXCH =        8
   RHO(1)=    0.500       N(1)  =     2000
   RHO(2)=  100.500       N(2)  =     4000



--------------------------------------------------------------------------------------------------------


 ion  position               nearest neighbor table
   1  0.167  0.167  0.500-  56 1.94  55 1.94  40 1.94  37 1.94 100 2.00  46 2.00  31 3.06  28 3.06
                            11 3.06  10 3.06
   2  0.167  0.500  0.500-  56 1.94  41 1.94  38 1.94  57 1.94 101 2.00  47 2.00  11 3.06  32 3.06
                            29 3.06  12 3.06
   3  0.167  0.833  0.500-  57 1.94  42 1.94  39 1.94  55 1.94 102 2.00  48 2.00  12 3.06  33 3.06
                            30 3.06  10 3.06
   4  0.500  0.167  0.500-  40 1.94  59 1.94  58 1.94  43 1.94 103 2.00  49 2.00  31 3.06  14 3.06
                            13 3.06  34 3.06
   5  0.500  0.509  0.500-  60 1.84  41 1.94  44 1.94 104 2.00  50 2.00  59 2.04  15 3.00  32 3.06
                            35 3.06  14 3.12
   6  0.500  0.833  0.500-  60 1.94  42 1.94  58 1.94  45 1.94 105 2.00  51 2.00  15 3.06  33 3.06
                            13 3.06  36 3.06
   7  0.833  0.167  0.500-  43 1.94  62 1.94  61 1.94  37 1.94 106 2.00  52 2.00  34 3.06  17 3.06
                            16 3.06  28 3.06
   8  0.833  0.500  0.500-  44 1.94  62 1.94  63 1.94  38 1.94 107 2.00  53 2.00  35 3.06  17 3.06
                            29 3.06  18 3.06
   9  0.833  0.833  0.500-  63 1.94  45 1.94  61 1.94  39 1.94 108 2.00  54 2.00  36 3.06  18 3.06
                            30 3.06  16 3.06
  10  0.167  0.000  0.750-  67 1.94  64 1.94  46 1.94  48 1.94  73 2.00  55 2.00  22 3.06  19 3.06
                             1 3.06   3 3.06
  11  0.167  0.333  0.750-  47 1.94  46 1.94  68 1.94  65 1.94  74 2.00  56 2.00   2 3.06  23 3.06
                            20 3.06   1 3.06
  12  0.167  0.667  0.750-  48 1.94  69 1.94  66 1.94  47 1.94  75 2.00  57 2.00   3 3.06  24 3.06
                            21 3.06   2 3.06
  13  0.500  0.000  0.750-  67 1.94  49 1.94  51 1.94  70 1.94  76 2.00  58 2.00  22 3.06   4 3.06
                            25 3.06   6 3.06
  14  0.500  0.333  0.750-  50 1.94  68 1.94  49 1.94  71 1.94  77 2.00  59 2.00  23 3.06   4 3.06
                            26 3.06   5 3.12
  15  0.500  0.667  0.750-  51 1.94  69 1.94  50 1.94  72 1.94  78 2.00  60 2.00   5 3.00   6 3.06
                            24 3.06  27 3.06
  16  0.833  0.000  0.750-  70 1.94  52 1.94  64 1.94  54 1.94  79 2.00  61 2.00  25 3.06   7 3.06
                            19 3.06   9 3.06
  17  0.833  0.333  0.750-  71 1.94  53 1.94  52 1.94  65 1.94  80 2.00  62 2.00  26 3.06   8 3.06
                             7 3.06  20 3.06
  18  0.833  0.667  0.750-  54 1.94  72 1.94  66 1.94  53 1.94  81 2.00  63 2.00  27 3.06   9 3.06
                            21 3.06   8 3.06
  19  0.000  0.000  0.000-  73 1.94  91 1.94  79 1.94  93 1.94  82 2.00  64 2.00  10 3.06  28 3.06
                            16 3.06  30 3.06
  20  0.000  0.333  0.000-  92 1.94  74 1.94  91 1.94  80 1.94  83 2.00  65 2.00  29 3.06  11 3.06
                            28 3.06  17 3.06
  21  0.000  0.667  0.000-  93 1.94  75 1.94  81 1.94  92 1.94  84 2.00  66 2.00  30 3.06  12 3.06
                            18 3.06  29 3.06
  22  0.333  0.000  0.000-  76 1.94  73 1.94  94 1.94  96 1.94  85 2.00  67 2.00  13 3.06  10 3.06
                            31 3.06  33 3.06
  23  0.333  0.333  0.000-  77 1.94  95 1.94  74 1.94  94 1.94  86 2.00  68 2.00  14 3.06  32 3.06
                            11 3.06  31 3.06
  24  0.333  0.667  0.000-  96 1.94  78 1.94  75 1.94  95 1.94  87 2.00  69 2.00  33 3.06  15 3.06
                            12 3.06  32 3.06
  25  0.667  0.000  0.000-  79 1.94  97 1.94  76 1.94  99 1.94  88 2.00  70 2.00  16 3.06  34 3.06
                            13 3.06  36 3.06
  26  0.667  0.333  0.000-  80 1.94  98 1.94  97 1.94  77 1.94  89 2.00  71 2.00  17 3.06  35 3.06
                            34 3.06  14 3.06
  27  0.667  0.667  0.000-  81 1.94  99 1.94  78 1.94  98 1.94  90 2.00  72 2.00  18 3.06  36 3.06
                            15 3.06  35 3.06
  28  0.000  0.167  0.250-  83 1.94  82 1.94 100 1.94 106 1.94  37 2.00  91 2.00   1 3.06  20 3.06
                            19 3.06   7 3.06
  29  0.000  0.500  0.250-  83 1.94 101 1.94  84 1.94 107 1.94  38 2.00  92 2.00  20 3.06   2 3.06
                             8 3.06  21 3.06
  30  0.000  0.833  0.250-  84 1.94 102 1.94  82 1.94 108 1.94  39 2.00  93 2.00  21 3.06   3 3.06
                             9 3.06  19 3.06
  31  0.333  0.167  0.250- 103 1.94  86 1.94  85 1.94 100 1.94  40 2.00  94 2.00   4 3.06   1 3.06
                            23 3.06  22 3.06
  32  0.333  0.500  0.250-  86 1.94 104 1.94 101 1.94  87 1.94  41 2.00  95 2.00  23 3.06   2 3.06
                            24 3.06   5 3.06
  33  0.333  0.833  0.250-  87 1.94 105 1.94 102 1.94  85 1.94  42 2.00  96 2.00  24 3.06   6 3.06
                             3 3.06  22 3.06
  34  0.667  0.167  0.250- 106 1.94  89 1.94  88 1.94 103 1.94  43 2.00  97 2.00   7 3.06  26 3.06
                            25 3.06   4 3.06
  35  0.667  0.500  0.250- 107 1.94  89 1.94  90 1.94 104 1.94  44 2.00  98 2.00   8 3.06  26 3.06
                            27 3.06   5 3.06
  36  0.667  0.833  0.250-  90 1.94 108 1.94  88 1.94 105 1.94  45 2.00  99 2.00   9 3.06  27 3.06
                            25 3.06   6 3.06
  37  0.000  0.167  0.458-   1 1.94   7 1.94  28 2.00
  38  0.000  0.500  0.458-   2 1.94   8 1.94  29 2.00
  39  0.000  0.833  0.458-   3 1.94   9 1.94  30 2.00
  40  0.333  0.167  0.458-   4 1.94   1 1.94  31 2.00
  41  0.333  0.500  0.458-   2 1.94   5 1.94  32 2.00
  42  0.333  0.833  0.458-   6 1.94   3 1.94  33 2.00
  43  0.667  0.167  0.458-   7 1.94   4 1.94  34 2.00
  44  0.667  0.500  0.458-   8 1.94   5 1.94  35 2.00
  45  0.667  0.833  0.458-   9 1.94   6 1.94  36 2.00
  46  0.167  0.167  0.708-  11 1.94  10 1.94   1 2.00
  47  0.167  0.500  0.708-  11 1.94  12 1.94   2 2.00
  48  0.167  0.833  0.708-  12 1.94  10 1.94   3 2.00
  49  0.500  0.167  0.708-  14 1.94  13 1.94   4 2.00
  50  0.500  0.500  0.708-  14 1.94  15 1.94   5 2.00
  51  0.500  0.833  0.708-  15 1.94  13 1.94   6 2.00
  52  0.833  0.167  0.708-  17 1.94  16 1.94   7 2.00
  53  0.833  0.500  0.708-  17 1.94  18 1.94   8 2.00
  54  0.833  0.833  0.708-  18 1.94  16 1.94   9 2.00
  55  0.167  0.000  0.542-   1 1.94   3 1.94  10 2.00
  56  0.167  0.333  0.542-   2 1.94   1 1.94  11 2.00
  57  0.167  0.667  0.542-   3 1.94   2 1.94  12 2.00
  58  0.500  0.000  0.542-   4 1.94   6 1.94  13 2.00
  59  0.500  0.333  0.542-   4 1.94  14 2.00   5 2.04
  60  0.500  0.667  0.542-   5 1.84   6 1.94  15 2.00
  61  0.833  0.000  0.542-   7 1.94   9 1.94  16 2.00
  62  0.833  0.333  0.542-   8 1.94   7 1.94  17 2.00
  63  0.833  0.667  0.542-   9 1.94   8 1.94  18 2.00
  64  0.000  0.000  0.792-  10 1.94  16 1.94  19 2.00
  65  0.000  0.333  0.792-  11 1.94  17 1.94  20 2.00
  66  0.000  0.667  0.792-  12 1.94  18 1.94  21 2.00
  67  0.333  0.000  0.792-  13 1.94  10 1.94  22 2.00
  68  0.333  0.333  0.792-  14 1.94  11 1.94  23 2.00
  69  0.333  0.667  0.792-  15 1.94  12 1.94  24 2.00
  70  0.667  0.000  0.792-  16 1.94  13 1.94  25 2.00
  71  0.667  0.333  0.792-  17 1.94  14 1.94  26 2.00
  72  0.667  0.667  0.792-  18 1.94  15 1.94  27 2.00
  73  0.167  0.000  0.958-  22 1.94  19 1.94  10 2.00
  74  0.167  0.333  0.958-  23 1.94  20 1.94  11 2.00
  75  0.167  0.667  0.958-  24 1.94  21 1.94  12 2.00
  76  0.500  0.000  0.958-  22 1.94  25 1.94  13 2.00
  77  0.500  0.333  0.958-  23 1.94  26 1.94  14 2.00
  78  0.500  0.667  0.958-  24 1.94  27 1.94  15 2.00
  79  0.833  0.000  0.958-  25 1.94  19 1.94  16 2.00
  80  0.833  0.333  0.958-  26 1.94  20 1.94  17 2.00
  81  0.833  0.667  0.958-  27 1.94  21 1.94  18 2.00
  82  0.000  0.000  0.208-  28 1.94  30 1.94  19 2.00
  83  0.000  0.333  0.208-  29 1.94  28 1.94  20 2.00
  84  0.000  0.667  0.208-  30 1.94  29 1.94  21 2.00
  85  0.333  0.000  0.208-  31 1.94  33 1.94  22 2.00
  86  0.333  0.333  0.208-  32 1.94  31 1.94  23 2.00
  87  0.333  0.667  0.208-  33 1.94  32 1.94  24 2.00
  88  0.667  0.000  0.208-  34 1.94  36 1.94  25 2.00
  89  0.667  0.333  0.208-  35 1.94  34 1.94  26 2.00
  90  0.667  0.667  0.208-  36 1.94  35 1.94  27 2.00
  91  0.000  0.167  0.042-  20 1.94  19 1.94  28 2.00
  92  0.000  0.500  0.042-  20 1.94  21 1.94  29 2.00
  93  0.000  0.833  0.042-  21 1.94  19 1.94  30 2.00
  94  0.333  0.167  0.042-  23 1.94  22 1.94  31 2.00
  95  0.333  0.500  0.042-  23 1.94  24 1.94  32 2.00
  96  0.333  0.833  0.042-  24 1.94  22 1.94  33 2.00
  97  0.667  0.167  0.042-  26 1.94  25 1.94  34 2.00
  98  0.667  0.500  0.042-  26 1.94  27 1.94  35 2.00
  99  0.667  0.833  0.042-  27 1.94  25 1.94  36 2.00
 100  0.167  0.167  0.292-  31 1.94  28 1.94   1 2.00
 101  0.167  0.500  0.292-  32 1.94  29 1.94   2 2.00
 102  0.167  0.833  0.292-  33 1.94  30 1.94   3 2.00
 103  0.500  0.167  0.292-  31 1.94  34 1.94   4 2.00
 104  0.500  0.500  0.292-  32 1.94  35 1.94   5 2.00
 105  0.500  0.833  0.292-  33 1.94  36 1.94   6 2.00
 106  0.833  0.167  0.292-  34 1.94  28 1.94   7 2.00
 107  0.833  0.500  0.292-  35 1.94  29 1.94   8 2.00
 108  0.833  0.833  0.292-  36 1.94  30 1.94   9 2.00


IMPORTANT INFORMATION: All symmetrisations will be switched off!
NOSYMM: (Re-)initialisation of all symmetry stuff for point group C_1.


----------------------------------------------------------------------------------------

                                     Primitive cell

  volume of cell :    1243.1447

  direct lattice vectors                    reciprocal lattice vectors
    11.376843452  0.000000000  0.000000000     0.087897843  0.000000000  0.000000000
     0.000000000 11.376843452  0.000000000     0.000000000  0.087897843  0.000000000
     0.000000000  0.000000000  9.604574204     0.000000000  0.000000000  0.104117057

  length of vectors
    11.376843452 11.376843452  9.604574204     0.087897843  0.087897843  0.104117057

  position of ions in fractional coordinates (direct lattice)
     0.166666672  0.166666672  0.500000000
     0.166666672  0.500000000  0.500000000
     0.166666672  0.833333313  0.500000000
     0.500000000  0.166666672  0.500000000
     0.500000000  0.508789784  0.500000000
     0.500000000  0.833333313  0.500000000
     0.833333313  0.166666672  0.500000000
     0.833333313  0.500000000  0.500000000
     0.833333313  0.833333313  0.500000000
     0.166666672  0.000000000  0.750000000
     0.166666672  0.333333343  0.750000000
     0.166666672  0.666666687  0.750000000
     0.500000000  0.000000000  0.750000000
     0.500000000  0.333333343  0.750000000
     0.500000000  0.666666687  0.750000000
     0.833333313  0.000000000  0.750000000
     0.833333313  0.333333343  0.750000000
     0.833333313  0.666666687  0.750000000
     0.000000000  0.000000000  0.000000000
     0.000000000  0.333333343  0.000000000
     0.000000000  0.666666687  0.000000000
     0.333333343  0.000000000  0.000000000
     0.333333343  0.333333343  0.000000000
     0.333333343  0.666666687  0.000000000
     0.666666687  0.000000000  0.000000000
     0.666666687  0.333333343  0.000000000
     0.666666687  0.666666687  0.000000000
     0.000000000  0.166666672  0.250000000
     0.000000000  0.500000000  0.250000000
     0.000000000  0.833333313  0.250000000
     0.333333343  0.166666672  0.250000000
     0.333333343  0.500000000  0.250000000
     0.333333343  0.833333313  0.250000000
     0.666666687  0.166666672  0.250000000
     0.666666687  0.500000000  0.250000000
     0.666666687  0.833333313  0.250000000
     0.000000000  0.166666672  0.457898587
     0.000000000  0.500000000  0.457898587
     0.000000000  0.833333313  0.457898587
     0.333333343  0.166666672  0.457898587
     0.333333343  0.500000000  0.457898587
     0.333333343  0.833333313  0.457898587
     0.666666687  0.166666672  0.457898587
     0.666666687  0.500000000  0.457898587
     0.666666687  0.833333313  0.457898587
     0.166666672  0.166666672  0.707898617
     0.166666672  0.500000000  0.707898617
     0.166666672  0.833333313  0.707898617
     0.500000000  0.166666672  0.707898617
     0.500000000  0.500000000  0.707898617
     0.500000000  0.833333313  0.707898617
     0.833333313  0.166666672  0.707898617
     0.833333313  0.500000000  0.707898617
     0.833333313  0.833333313  0.707898617
     0.166666672  0.000000000  0.542101383
     0.166666672  0.333333343  0.542101383
     0.166666672  0.666666687  0.542101383
     0.500000000  0.000000000  0.542101383
     0.500000000  0.333333343  0.542101383
     0.500000000  0.666666687  0.542101383
     0.833333313  0.000000000  0.542101383
     0.833333313  0.333333343  0.542101383
     0.833333313  0.666666687  0.542101383
     0.000000000  0.000000000  0.792101383
     0.000000000  0.333333343  0.792101383
     0.000000000  0.666666687  0.792101383
     0.333333343  0.000000000  0.792101383
     0.333333343  0.333333343  0.792101383
     0.333333343  0.666666687  0.792101383
     0.666666687  0.000000000  0.792101383
     0.666666687  0.333333343  0.792101383
     0.666666687  0.666666687  0.792101383
     0.166666672  0.000000000  0.957898617
     0.166666672  0.333333343  0.957898617
     0.166666672  0.666666687  0.957898617
     0.500000000  0.000000000  0.957898617
     0.500000000  0.333333343  0.957898617
     0.500000000  0.666666687  0.957898617
     0.833333313  0.000000000  0.957898617
     0.833333313  0.333333343  0.957898617
     0.833333313  0.666666687  0.957898617
     0.000000000  0.000000000  0.207898602
     0.000000000  0.333333343  0.207898602
     0.000000000  0.666666687  0.207898602
     0.333333343  0.000000000  0.207898602
     0.333333343  0.333333343  0.207898602
     0.333333343  0.666666687  0.207898602
     0.666666687  0.000000000  0.207898602
     0.666666687  0.333333343  0.207898602
     0.666666687  0.666666687  0.207898602
     0.000000000  0.166666672  0.042101406
     0.000000000  0.500000000  0.042101406
     0.000000000  0.833333313  0.042101406
     0.333333343  0.166666672  0.042101406
     0.333333343  0.500000000  0.042101406
     0.333333343  0.833333313  0.042101406
     0.666666687  0.166666672  0.042101406
     0.666666687  0.500000000  0.042101406
     0.666666687  0.833333313  0.042101406
     0.166666672  0.166666672  0.292101413
     0.166666672  0.500000000  0.292101413
     0.166666672  0.833333313  0.292101413
     0.500000000  0.166666672  0.292101413
     0.500000000  0.500000000  0.292101413
     0.500000000  0.833333313  0.292101413
     0.833333313  0.166666672  0.292101413
     0.833333313  0.500000000  0.292101413
     0.833333313  0.833333313  0.292101413

  ion indices of the primitive-cell ions
   primitive index   ion index
                 1           1
                 2           2
                 3           3
                 4           4
                 5           5
                 6           6
                 7           7
                 8           8
                 9           9
                10          10
                11          11
                12          12
                13          13
                14          14
                15          15
                16          16
                17          17
                18          18
                19          19
                20          20
                21          21
                22          22
                23          23
                24          24
                25          25
                26          26
                27          27
                28          28
                29          29
                30          30
                31          31
                32          32
                33          33
                34          34
                35          35
                36          36
                37          37
                38          38
                39          39
                40          40
                41          41
                42          42
                43          43
                44          44
                45          45
                46          46
                47          47
                48          48
                49          49
                50          50
                51          51
                52          52
                53          53
                54          54
                55          55
                56          56
                57          57
                58          58
                59          59
                60          60
                61          61
                62          62
                63          63
                64          64
                65          65
                66          66
                67          67
                68          68
                69          69
                70          70
                71          71
                72          72
                73          73
                74          74
                75          75
                76          76
                77          77
                78          78
                79          79
                80          80
                81          81
                82          82
                83          83
                84          84
                85          85
                86          86
                87          87
                88          88
                89          89
                90          90
                91          91
                92          92
                93          93
                94          94
                95          95
                96          96
                97          97
                98          98
                99          99
               100         100
               101         101
               102         102
               103         103
               104         104
               105         105
               106         106
               107         107
               108         108

----------------------------------------------------------------------------------------



 KPOINTS: K-Points

Automatic generation of k-mesh.
 Grid dimensions read from file:
 generate k-points for:    2    2    2

 Generating k-lattice:

  Cartesian coordinates                     Fractional coordinates (reciprocal lattice)
     0.043948922  0.000000000  0.000000000     0.500000000  0.000000000  0.000000000
     0.000000000  0.043948922  0.000000000     0.000000000  0.500000000  0.000000000
     0.000000000  0.000000000  0.052058529     0.000000000  0.000000000  0.500000000

  Length of vectors
     0.043948922  0.043948922  0.052058529

  Shift w.r.t. Gamma in fractional coordinates (k-lattice)
     0.500000000  0.500000000  0.500000000


 Subroutine IBZKPT returns following result:
 ===========================================

 Found      4 irreducible k-points:

 Following reciprocal coordinates:
            Coordinates               Weight
  0.250000  0.250000  0.250000      2.000000
 -0.250000  0.250000  0.250000      2.000000
 -0.250000 -0.250000  0.250000      2.000000
  0.250000 -0.250000  0.250000      2.000000

 Following cartesian coordinates:
            Coordinates               Weight
  0.021974  0.021974  0.026029      2.000000
 -0.021974  0.021974  0.026029      2.000000
 -0.021974 -0.021974  0.026029      2.000000
  0.021974 -0.021974  0.026029      2.000000


 Subroutine IBZKPT_HF returns following result:
 ==============================================

 Found      8 k-points in 1st BZ
 the following      8 k-points will be used (e.g. in the exchange kernel)
 Following reciprocal coordinates:   # in IRBZ
  0.250000  0.250000  0.250000    0.12500000   1 t-inv F
 -0.250000  0.250000  0.250000    0.12500000   2 t-inv F
 -0.250000 -0.250000  0.250000    0.12500000   3 t-inv F
  0.250000 -0.250000  0.250000    0.12500000   4 t-inv F
 -0.250000 -0.250000 -0.250000    0.12500000   1 t-inv T
  0.250000 -0.250000 -0.250000    0.12500000   2 t-inv T
  0.250000  0.250000 -0.250000    0.12500000   3 t-inv T
 -0.250000  0.250000 -0.250000    0.12500000   4 t-inv T


--------------------------------------------------------------------------------------------------------




 Dimension of arrays:
   k-points           NKPTS =      4   k-points in BZ     NKDIM =      4   number of bands    NBANDS=    476
   number of dos      NEDOS =    301   number of ions     NIONS =    108
   non local maximal  LDIM  =      6   non local SUM 2l+1 LMDIM =     18
   total plane-waves  NPLWV = 150528
   max r-space proj   IRMAX =   1791   max aug-charges    IRDMAX=   4900
   dimension x,y,z NGX =    56 NGY =   56 NGZ =   48
   dimension x,y,z NGXF=   112 NGYF=  112 NGZF=   96
   support grid    NGXF=   112 NGYF=  112 NGZF=   96
   ions per type =              36  72
   NGX,Y,Z   is equivalent  to a cutoff of   8.18,  8.18,  8.31 a.u.
   NGXF,Y,Z  is equivalent  to a cutoff of  16.37, 16.37, 16.62 a.u.

 SYSTEM =  unknown system
 POSCAR =  Ti4 O8

 Startparameter for this run:
   NWRITE =      2    write-flag & timer
   PREC   = normal    normal or accurate (medium, high low for compatibility)
   ISTART =      0    job   : 0-new  1-cont  2-samecut
   ICHARG =      2    charge: 1-file 2-atom 10-const
   ISPIN  =      1    spin polarized calculation?
   LNONCOLLINEAR =      F non collinear calculations
   LSORBIT =      F    spin-orbit coupling
   INIWAV =      1    electr: 0-lowe 1-rand  2-diag
   LASPH  =      F    aspherical Exc in radial PAW
 Electronic Relaxation 1
   ENCUT  =  400.0 eV  29.40 Ry    5.42 a.u.  18.55 18.55 15.66*2*pi/ulx,y,z
   ENINI  =  400.0     initial cutoff
   ENAUG  =  605.4 eV  augmentation charge cutoff
   NELM   =     80;   NELMIN=  4; NELMDL= -5     # of ELM steps
   EDIFF  = 0.1E-06   stopping-criterion for ELM
   LREAL  =      T    real-space projection
   NLSPLINE    = F    spline interpolate recip. space projectors
   LCOMPAT=      F    compatible to vasp.4.4
   GGA_COMPAT  = T    GGA compatible to vasp.4.4-vasp.4.6
   LMAXPAW     = -100 max onsite density
   LMAXMIX     =    2 max onsite mixed and CHGCAR
   VOSKOWN=      0    Vosko Wilk Nusair interpolation
   ROPT   =   -0.00050  -0.00050
 Ionic relaxation
   EDIFFG = 0.1E-05   stopping-criterion for IOM
   NSW    =      0    number of steps for IOM
   NBLOCK =      1;   KBLOCK =      1    inner block; outer block
   IBRION =     -1    ionic relax: 0-MD 1-quasi-New 2-CG
   NFREE  =      0    steps in history (QN), initial steepest desc. (CG)
   ISIF   =      2    stress and relaxation
   IWAVPR =     10    prediction:  0-non 1-charg 2-wave 3-comb
   ISYM   =      0    0-nonsym 1-usesym 2-fastsym
   LCORR  =      T    Harris-Foulkes like correction to forces

   POTIM  = 0.5000    time-step for ionic-motion
   TEIN   =    0.0    initial temperature
   TEBEG  =    0.0;   TEEND  =   0.0 temperature during run
   SMASS  =  -3.00    Nose mass-parameter (am)
   estimated Nose-frequenzy (Omega)   =  0.10E-29 period in steps = 0.13E+47 mass=  -0.296E-26a.u.
   SCALEE = 1.0000    scale energy and forces
   NPACO  =    256;   APACO  = 10.0  distance and # of slots for P.C.
   PSTRESS=    0.0 pullay stress

  Mass of Ions in am
   POMASS =  47.88 16.00
  Ionic Valenz
   ZVAL   =  10.00  6.00
  Atomic Wigner-Seitz radii
   RWIGS  =  -1.00 -1.00
  virtual crystal weights
   VCA    =   1.00  1.00
   NELECT =     792.0000    total number of electrons
   NUPDOWN=      -1.0000    fix difference up-down

 DOS related values:
   EMIN   =  10.00;   EMAX   =-10.00  energy-range for DOS
   EFERMI =   0.00
   ISMEAR =     0;   SIGMA  =   0.10  broadening in eV -4-tet -1-fermi 0-gaus

 Electronic relaxation 2 (details)
   IALGO  =     38    algorithm
   LDIAG  =      T    sub-space diagonalisation (order eigenvalues)
   LSUBROT=      F    optimize rotation matrix (better conditioning)
   TURBO    =      0    0=normal 1=particle mesh
   IRESTART =      0    0=no restart 2=restart with 2 vectors
   NREBOOT  =      0    no. of reboots
   NMIN     =      0    reboot dimension
   EREF     =   0.00    reference energy to select bands
   IMIX   =      4    mixing-type and parameters
     AMIX     =   0.40;   BMIX     =  1.00
     AMIX_MAG =   1.60;   BMIX_MAG =  1.00
     AMIN     =   0.10
     WC   =   100.;   INIMIX=   1;  MIXPRE=   1;  MAXMIX= -45

 Intra band minimization:
   WEIMIN = 0.0000     energy-eigenvalue tresh-hold
   EBREAK =  0.53E-10  absolut break condition
   DEPER  =   0.30     relativ break condition

   TIME   =   0.40     timestep for ELM

  volume/ion in A,a.u.               =      11.51        77.68
  Fermi-wavevector in a.u.,A,eV,Ry     =   1.408670  2.662001 26.998745  1.984352
  Thomas-Fermi vector in A             =   2.530804

 Write flags
   LWAVE        =      F    write WAVECAR
   LDOWNSAMPLE  =      F    k-point downsampling of WAVECAR
   LCHARG       =      F    write CHGCAR
   LVTOT        =      F    write LOCPOT, total local potential
   LVHAR        =      F    write LOCPOT, Hartree potential only
   LELF         =      F    write electronic localiz. function (ELF)
   LORBIT       =      0    0 simple, 1 ext, 2 COOP (PROOUT), +10 PAW based schemes


 Dipole corrections
   LMONO  =      F    monopole corrections only (constant potential shift)
   LDIPOL =      F    correct potential (dipole corrections)
   IDIPOL =      0    1-x, 2-y, 3-z, 4-all directions
   EPSILON=  1.0000000 bulk dielectric constant

 Exchange correlation treatment:
   GGA     =    --    GGA type
   LEXCH   =     8    internal setting for exchange type
   LIBXC   =     F    Libxc
   VOSKOWN =     0    Vosko Wilk Nusair interpolation
   LHFCALC =     F    Hartree Fock is set to
   LHFONE  =     F    Hartree Fock one center treatment
   AEXX    =    0.0000 exact exchange contribution

 Linear response parameters
   LEPSILON=     T    determine dielectric tensor
   LRPA    =     F    only Hartree local field effects (RPA)
   LNABLA  =     F    use nabla operator in PAW spheres
   LVEL    =     F    velocity operator in full k-point grid
   CSHIFT  =0.1000    complex shift for real part using Kramers Kronig
   OMEGAMAX=  -1.0    maximum frequency
   DEG_THRESHOLD= 0.2000000E-02 threshold for treating states as degnerate
   RTIME   =   -0.100 relaxation time in fs
  (WPLASMAI=    0.000 imaginary part of plasma frequency in eV, 0.658/RTIME)
   DFIELD  = 0.0000000 0.0000000 0.0000000 field for delta impulse in time

  Optional k-point grid parameters
   LKPOINTS_OPT  =     F    use optional k-point grid
   KPOINTS_OPT_MODE=     1    mode for optional k-point grid

 Orbital magnetization related:
   ORBITALMAG=     F  switch on orbital magnetization
   LCHIMAG   =     F  perturbation theory with respect to B field
   DQ        =  0.001000  dq finite difference perturbation B field
   LLRAUG    =     F  two centre corrections for induced B field

 PEAD related settings:
   LPEAD      =     T    switch on PEAD
   IPEAD      =     4    finite difference order for dpsi/dk
   LCALCPOL   =     F    calculate macroscopic polarization
   LCALCEPS   =     F    calculate dielectric tensor
   EFIELD_PEAD=    0.0000    0.0000    0.0000
   SKIP_EDOTP =     F
   LRPA       =     F
   SKIP_SCF   =     F


--------------------------------------------------------------------------------------------------------


 Static calculation
 charge density and potential will be updated during run
 non-spin polarized calculation
 Variant of blocked Davidson
 Davidson routine will perform the subspace rotation
 perform sub-space diagonalisation
    after iterative eigenvector-optimisation
 modified Broyden-mixing scheme, WC =      100.0
 initial mixing is a Kerker type mixing with AMIX =  0.4000 and BMIX =      1.0000
 Hartree-type preconditioning will be used
 using additional bands           80
 real space projection scheme for non local part
 use partial core corrections
 calculate Harris-corrections to forces
   (improved forces if not selfconsistent)
 use gradient corrections
 use of overlap-Matrix (Vanderbilt PP)
 Gauss-broadening in eV      SIGMA  =   0.10


--------------------------------------------------------------------------------------------------------


  energy-cutoff  :      400.00
  volume of cell :     1243.14
      direct lattice vectors                 reciprocal lattice vectors
    11.376843452  0.000000000  0.000000000     0.087897843  0.000000000  0.000000000
     0.000000000 11.376843452  0.000000000     0.000000000  0.087897843  0.000000000
     0.000000000  0.000000000  9.604574204     0.000000000  0.000000000  0.104117057

  length of vectors
    11.376843452 11.376843452  9.604574204     0.087897843  0.087897843  0.104117057



 k-points in units of 2pi/SCALE and weight: K-Points
   0.02197446  0.02197446  0.02602926       0.250
  -0.02197446  0.02197446  0.02602926       0.250
  -0.02197446 -0.02197446  0.02602926       0.250
   0.02197446 -0.02197446  0.02602926       0.250

 k-points in reciprocal lattice and weights: K-Points
   0.25000000  0.25000000  0.25000000       0.250
  -0.25000000  0.25000000  0.25000000       0.250
  -0.25000000 -0.25000000  0.25000000       0.250
   0.25000000 -0.25000000  0.25000000       0.250

 position of ions in fractional coordinates (direct lattice)
   0.16666667  0.16666667  0.50000000
   0.16666667  0.50000000  0.50000000
   0.16666667  0.83333331  0.50000000
   0.50000000  0.16666667  0.50000000
   0.50000000  0.50878978  0.50000000
   0.50000000  0.83333331  0.50000000
   0.83333331  0.16666667  0.50000000
   0.83333331  0.50000000  0.50000000
   0.83333331  0.83333331  0.50000000
   0.16666667  0.00000000  0.75000000
   0.16666667  0.33333334  0.75000000
   0.16666667  0.66666669  0.75000000
   0.50000000  0.00000000  0.75000000
   0.50000000  0.33333334  0.75000000
   0.50000000  0.66666669  0.75000000
   0.83333331  0.00000000  0.75000000
   0.83333331  0.33333334  0.75000000
   0.83333331  0.66666669  0.75000000
   0.00000000  0.00000000  0.00000000
   0.00000000  0.33333334  0.00000000
   0.00000000  0.66666669  0.00000000
   0.33333334  0.00000000  0.00000000
   0.33333334  0.33333334  0.00000000
   0.33333334  0.66666669  0.00000000
   0.66666669  0.00000000  0.00000000
   0.66666669  0.33333334  0.00000000
   0.66666669  0.66666669  0.00000000
   0.00000000  0.16666667  0.25000000
   0.00000000  0.50000000  0.25000000
   0.00000000  0.83333331  0.25000000
   0.33333334  0.16666667  0.25000000
   0.33333334  0.50000000  0.25000000
   0.33333334  0.83333331  0.25000000
   0.66666669  0.16666667  0.25000000
   0.66666669  0.50000000  0.25000000
   0.66666669  0.83333331  0.25000000
   0.00000000  0.16666667  0.45789859
   0.00000000  0.50000000  0.45789859
   0.00000000  0.83333331  0.45789859
   0.33333334  0.16666667  0.45789859
   0.33333334  0.50000000  0.45789859
   0.33333334  0.83333331  0.45789859
   0.66666669  0.16666667  0.45789859
   0.66666669  0.50000000  0.45789859
   0.66666669  0.83333331  0.45789859
   0.16666667  0.16666667  0.70789862
   0.16666667  0.50000000  0.70789862
   0.16666667  0.83333331  0.70789862
   0.50000000  0.16666667  0.70789862
   0.50000000  0.50000000  0.70789862
   0.50000000  0.83333331  0.70789862
   0.83333331  0.16666667  0.70789862
   0.83333331  0.50000000  0.70789862
   0.83333331  0.83333331  0.70789862
   0.16666667  0.00000000  0.54210138
   0.16666667  0.33333334  0.54210138
   0.16666667  0.66666669  0.54210138
   0.50000000  0.00000000  0.54210138
   0.50000000  0.33333334  0.54210138
   0.50000000  0.66666669  0.54210138
   0.83333331  0.00000000  0.54210138
   0.83333331  0.33333334  0.54210138
   0.83333331  0.66666669  0.54210138
   0.00000000  0.00000000  0.79210138
   0.00000000  0.33333334  0.79210138
   0.00000000  0.66666669  0.79210138
   0.33333334  0.00000000  0.79210138
   0.33333334  0.33333334  0.79210138
   0.33333334  0.66666669  0.79210138
   0.66666669  0.00000000  0.79210138
   0.66666669  0.33333334  0.79210138
   0.66666669  0.66666669  0.79210138
   0.16666667  0.00000000  0.95789862
   0.16666667  0.33333334  0.95789862
   0.16666667  0.66666669  0.95789862
   0.50000000  0.00000000  0.95789862
   0.50000000  0.33333334  0.95789862
   0.50000000  0.66666669  0.95789862
   0.83333331  0.00000000  0.95789862
   0.83333331  0.33333334  0.95789862
   0.83333331  0.66666669  0.95789862
   0.00000000  0.00000000  0.20789860
   0.00000000  0.33333334  0.20789860
   0.00000000  0.66666669  0.20789860
   0.33333334  0.00000000  0.20789860
   0.33333334  0.33333334  0.20789860
   0.33333334  0.66666669  0.20789860
   0.66666669  0.00000000  0.20789860
   0.66666669  0.33333334  0.20789860
   0.66666669  0.66666669  0.20789860
   0.00000000  0.16666667  0.04210141
   0.00000000  0.50000000  0.04210141
   0.00000000  0.83333331  0.04210141
   0.33333334  0.16666667  0.04210141
   0.33333334  0.50000000  0.04210141
   0.33333334  0.83333331  0.04210141
   0.66666669  0.16666667  0.04210141
   0.66666669  0.50000000  0.04210141
   0.66666669  0.83333331  0.04210141
   0.16666667  0.16666667  0.29210141
   0.16666667  0.50000000  0.29210141
   0.16666667  0.83333331  0.29210141
   0.50000000  0.16666667  0.29210141
   0.50000000  0.50000000  0.29210141
   0.50000000  0.83333331  0.29210141
   0.83333331  0.16666667  0.29210141
   0.83333331  0.50000000  0.29210141
   0.83333331  0.83333331  0.29210141

 position of ions in cartesian coordinates  (Angst):
   1.89614063  1.89614063  4.80228710
   1.89614063  5.68842173  4.80228710
   1.89614063  9.48070265  4.80228710
   5.68842173  1.89614063  4.80228710
   5.68842173  5.78842173  4.80228710
   5.68842173  9.48070265  4.80228710
   9.48070265  1.89614063  4.80228710
   9.48070265  5.68842173  4.80228710
   9.48070265  9.48070265  4.80228710
   1.89614063  0.00000000  7.20343065
   1.89614063  3.79228126  7.20343065
   1.89614063  7.58456253  7.20343065
   5.68842173  0.00000000  7.20343065
   5.68842173  3.79228126  7.20343065
   5.68842173  7.58456253  7.20343065
   9.48070265  0.00000000  7.20343065
   9.48070265  3.79228126  7.20343065
   9.48070265  7.58456253  7.20343065
   0.00000000  0.00000000  0.00000000
   0.00000000  3.79228126  0.00000000
   0.00000000  7.58456253  0.00000000
   3.79228126  0.00000000  0.00000000
   3.79228126  3.79228126  0.00000000
   3.79228126  7.58456253  0.00000000
   7.58456253  0.00000000  0.00000000
   7.58456253  3.79228126  0.00000000
   7.58456253  7.58456253  0.00000000
   0.00000000  1.89614063  2.40114355
   0.00000000  5.68842173  2.40114355
   0.00000000  9.48070265  2.40114355
   3.79228126  1.89614063  2.40114355
   3.79228126  5.68842173  2.40114355
   3.79228126  9.48070265  2.40114355
   7.58456253  1.89614063  2.40114355
   7.58456253  5.68842173  2.40114355
   7.58456253  9.48070265  2.40114355
   0.00000000  1.89614063  4.39792096
   0.00000000  5.68842173  4.39792096
   0.00000000  9.48070265  4.39792096
   3.79228126  1.89614063  4.39792096
   3.79228126  5.68842173  4.39792096
   3.79228126  9.48070265  4.39792096
   7.58456253  1.89614063  4.39792096
   7.58456253  5.68842173  4.39792096
   7.58456253  9.48070265  4.39792096
   1.89614063  1.89614063  6.79906479
   1.89614063  5.68842173  6.79906479
   1.89614063  9.48070265  6.79906479
   5.68842173  1.89614063  6.79906479
   5.68842173  5.68842173  6.79906479
   5.68842173  9.48070265  6.79906479
   9.48070265  1.89614063  6.79906479
   9.48070265  5.68842173  6.79906479
   9.48070265  9.48070265  6.79906479
   1.89614063  0.00000000  5.20665296
   1.89614063  3.79228126  5.20665296
   1.89614063  7.58456253  5.20665296
   5.68842173  0.00000000  5.20665296
   5.68842173  3.79228126  5.20665296
   5.68842173  7.58456253  5.20665296
   9.48070265  0.00000000  5.20665296
   9.48070265  3.79228126  5.20665296
   9.48070265  7.58456253  5.20665296
   0.00000000  0.00000000  7.60779651
   0.00000000  3.79228126  7.60779651
   0.00000000  7.58456253  7.60779651
   3.79228126  0.00000000  7.60779651
   3.79228126  3.79228126  7.60779651
   3.79228126  7.58456253  7.60779651
   7.58456253  0.00000000  7.60779651
   7.58456253  3.79228126  7.60779651
   7.58456253  7.58456253  7.60779651
   1.89614063  0.00000000  9.20020834
   1.89614063  3.79228126  9.20020834
   1.89614063  7.58456253  9.20020834
   5.68842173  0.00000000  9.20020834
   5.68842173  3.79228126  9.20020834
   5.68842173  7.58456253  9.20020834
   9.48070265  0.00000000  9.20020834
   9.48070265  3.79228126  9.20020834
   9.48070265  7.58456253  9.20020834
   0.00000000  0.00000000  1.99677755
   0.00000000  3.79228126  1.99677755
   0.00000000  7.58456253  1.99677755
   3.79228126  0.00000000  1.99677755
   3.79228126  3.79228126  1.99677755
   3.79228126  7.58456253  1.99677755
   7.58456253  0.00000000  1.99677755
   7.58456253  3.79228126  1.99677755
   7.58456253  7.58456253  1.99677755
   0.00000000  1.89614063  0.40436607
   0.00000000  5.68842173  0.40436607
   0.00000000  9.48070265  0.40436607
   3.79228126  1.89614063  0.40436607
   3.79228126  5.68842173  0.40436607
   3.79228126  9.48070265  0.40436607
   7.58456253  1.89614063  0.40436607
   7.58456253  5.68842173  0.40436607
   7.58456253  9.48070265  0.40436607
   1.89614063  1.89614063  2.80550970
   1.89614063  5.68842173  2.80550970
   1.89614063  9.48070265  2.80550970
   5.68842173  1.89614063  2.80550970
   5.68842173  5.68842173  2.80550970
   5.68842173  9.48070265  2.80550970
   9.48070265  1.89614063  2.80550970
   9.48070265  5.68842173  2.80550970
   9.48070265  9.48070265  2.80550970



--------------------------------------------------------------------------------------------------------


 k-point   1 :   0.2500 0.2500 0.2500  plane waves:   22590
 k-point   2 :  -0.2500 0.2500 0.2500  plane waves:   22590
 k-point   3 :  -0.2500-0.2500 0.2500  plane waves:   22590
 k-point   4 :   0.2500-0.2500 0.2500  plane waves:   22590

 maximum and minimum number of plane-waves per node :     22590    22590

 maximum number of plane-waves:     22590
 maximum index in each direction:
   IXMAX=   18   IYMAX=   18   IZMAX=   15
   IXMIN=  -18   IYMIN=  -18   IZMIN=  -15


 serial   3D FFT for wavefunctions
 parallel 3D FFT for charge:
    minimum data exchange during FFTs selected (reduces bandwidth)


 total amount of memory used by VASP MPI-rank0   266717. kBytes
=======================================================================

   base      :      30000. kBytes
   nonlr-proj:      19548. kBytes
   fftplans  :      10927. kBytes
   grid      :      23181. kBytes
   one-center:       1679. kBytes
   wavefun   :     181382. kBytes

     INWAV:  cpu time      0.0000: real time      0.0004
 Broyden mixing: mesh for mixing (old mesh)
   NGX = 37   NGY = 37   NGZ = 31
  (NGX  =112   NGY  =112   NGZ  = 96)
  gives a total of  42439 points

 initial charge density was supplied:
 charge density of overlapping atoms calculated
 number of electron     792.0000000 magnetization
 keeping initial charge density in first step


--------------------------------------------------------------------------------------------------------


 Maximum index for non-local projection operator         1743
 Maximum index for augmentation-charges         1189 (set IRDMAX)


--------------------------------------------------------------------------------------------------------


 First call to EWALD:  gamma=   0.165
 Maximum number of real-space cells 3x 3x 3
 Maximum number of reciprocal cells 3x 3x 3

    FEWALD:  cpu time      0.0032: real time      0.0035


--------------------------------------- Iteration      1(   1)  ---------------------------------------


    POTLOK:  cpu time      0.2160: real time      0.2185
    SETDIJ:  cpu time      0.0167: real time      0.0174
     EDDAV:  cpu time     14.4201: real time     14.5739
       DOS:  cpu time      0.0034: real time      0.0035
    --------------------------------------------
      LOOP:  cpu time     14.6561: real time     14.8133

 eigenvalue-minimisations  :  3824
 total energy-change (2. order) : 0.1156068E+05  (-0.3305519E+05)
 number of electron     792.0000000 magnetization
 augmentation part      792.0000000 magnetization

 Free energy of the ion-electron system (eV)
  ---------------------------------------------------
  alpha Z        PSCENC =      3563.47650690
  Ewald energy   TEWEN  =    -48587.85276815
  -Hartree energ DENC   =    -18841.62124379
  -exchange      EXHF   =         0.00000000
  -V(xc)+E(xc)   XCENC  =      3286.86446882
  PAW double counting   =     54431.09303398   -54537.79254336
  entropy T*S    EENTRO =        -0.14317764
  eigenvalues    EBANDS =      3590.25678890
  atomic energy  EATOM  =     68656.39924158
  Solvation  Ediel_sol  =         0.00000000
  ---------------------------------------------------
  free energy    TOTEN  =     11560.68030724 eV

  energy without entropy =    11560.82348488  energy(sigma->0) =    11560.75189606


--------------------------------------------------------------------------------------------------------




--------------------------------------- Iteration      1(   2)  ---------------------------------------


     EDDAV:  cpu time     13.4353: real time     13.5752
       DOS:  cpu time      0.0008: real time      0.0008
    --------------------------------------------
      LOOP:  cpu time     13.4361: real time     13.5760

 eigenvalue-minimisations  :  3808
 total energy-change (2. order) :-0.9988051E+04  (-0.9557761E+04)
 number of electron     792.0000000 magnetization
 augmentation part      792.0000000 magnetization

 Free energy of the ion-electron system (eV)
  ---------------------------------------------------
  alpha Z        PSCENC =      3563.47650690
  Ewald energy   TEWEN  =    -48587.85276815
  -Hartree energ DENC   =    -18841.62124379
  -exchange      EXHF   =         0.00000000
  -V(xc)+E(xc)   XCENC  =      3286.86446882
  PAW double counting   =     54431.09303398   -54537.79254336
  entropy T*S    EENTRO =        -0.28073136
  eigenvalues    EBANDS =     -6397.65668923
  atomic energy  EATOM  =     68656.39924158
  Solvation  Ediel_sol  =         0.00000000
  ---------------------------------------------------
  free energy    TOTEN  =      1572.62927539 eV

  energy without entropy =     1572.91000675  energy(sigma->0) =     1572.76964107


--------------------------------------------------------------------------------------------------------




--------------------------------------- Iteration      1(   3)  ---------------------------------------


     EDDAV:  cpu time     15.2702: real time     15.4249
       DOS:  cpu time      0.0010: real time      0.0010
    --------------------------------------------
      LOOP:  cpu time     15.2711: real time     15.4259

 eigenvalue-minimisations  :  4416
 total energy-change (2. order) :-0.2641241E+04  (-0.2570131E+04)
 number of electron     792.0000000 magnetization
 augmentation part      792.0000000 magnetization

 Free energy of the ion-electron system (eV)
  ---------------------------------------------------
  alpha Z        PSCENC =      3563.47650690
  Ewald energy   TEWEN  =    -48587.85276815
  -Hartree energ DENC   =    -18841.62124379
  -exchange      EXHF   =         0.00000000
  -V(xc)+E(xc)   XCENC  =      3286.86446882
  PAW double counting   =     54431.09303398   -54537.79254336
  entropy T*S    EENTRO =        -0.00000000
  eigenvalues    EBANDS =     -9039.17860099
  atomic energy  EATOM  =     68656.39924158
  Solvation  Ediel_sol  =         0.00000000
  ---------------------------------------------------
  free energy    TOTEN  =     -1068.61190501 eV

  energy without entropy =    -1068.61190501  energy(sigma->0) =    -1068.61190501


--------------------------------------------------------------------------------------------------------




--------------------------------------- Iteration      1(   4)  ---------------------------------------


     EDDAV:  cpu time     17.4543: real time     17.6299
       DOS:  cpu time      0.0007: real time      0.0007
    --------------------------------------------
      LOOP:  cpu time     17.4550: real time     17.6306

 eigenvalue-minimisations  :  5072
 total energy-change (2. order) :-0.2048361E+03  (-0.2037778E+03)
 number of electron     792.0000000 magnetization
 augmentation part      792.0000000 magnetization

 Free energy of the ion-electron system (eV)
  ---------------------------------------------------
  alpha Z        PSCENC =      3563.47650690
  Ewald energy   TEWEN  =    -48587.85276815
  -Hartree energ DENC   =    -18841.62124379
  -exchange      EXHF   =         0.00000000
  -V(xc)+E(xc)   XCENC  =      3286.86446882
  PAW double counting   =     54431.09303398   -54537.79254336
  entropy T*S    EENTRO =        -0.00000000
  eigenvalues    EBANDS =     -9244.01473144
  atomic energy  EATOM  =     68656.39924158
  Solvation  Ediel_sol  =         0.00000000
  ---------------------------------------------------
  free energy    TOTEN  =     -1273.44803546 eV

  energy without entropy =    -1273.44803546  energy(sigma->0) =    -1273.44803546


--------------------------------------------------------------------------------------------------------




--------------------------------------- Iteration      1(   5)  ---------------------------------------


     EDDAV:  cpu time     17.1257: real time     17.2930
       DOS:  cpu time      0.0006: real time      0.0006
    CHARGE:  cpu time      0.2294: real time      0.2396
    MIXING:  cpu time      0.0114: real time      0.0124
    --------------------------------------------
      LOOP:  cpu time     17.3672: real time     17.5456

 eigenvalue-minimisations  :  4992
 total energy-change (2. order) :-0.5179731E+01  (-0.5168842E+01)
 number of electron     792.0003053 magnetization
 augmentation part      202.2413752 magnetization

 Broyden mixing:
  rms(total) = 0.17246E+02    rms(broyden)= 0.17245E+02
  rms(prec ) = 0.19183E+02
  weight for this iteration     100.00

 Free energy of the ion-electron system (eV)
  ---------------------------------------------------
  alpha Z        PSCENC =      3563.47650690
  Ewald energy   TEWEN  =    -48587.85276815
  -Hartree energ DENC   =    -18841.62124379
  -exchange      EXHF   =         0.00000000
  -V(xc)+E(xc)   XCENC  =      3286.86446882
  PAW double counting   =     54431.09303398   -54537.79254336
  entropy T*S    EENTRO =        -0.00000000
  eigenvalues    EBANDS =     -9249.19446244
  atomic energy  EATOM  =     68656.39924158
  Solvation  Ediel_sol  =         0.00000000
  ---------------------------------------------------
  free energy    TOTEN  =     -1278.62776646 eV

  energy without entropy =    -1278.62776646  energy(sigma->0) =    -1278.62776646


--------------------------------------------------------------------------------------------------------




--------------------------------------- Iteration      1(   6)  ---------------------------------------


    POTLOK:  cpu time      0.1873: real time      0.1907
    SETDIJ:  cpu time      0.0122: real time      0.0124
     EDDAV:  cpu time     16.9514: real time     17.1138
       DOS:  cpu time      0.0007: real time      0.0007
    CHARGE:  cpu time      0.2316: real time      0.2396
    MIXING:  cpu time      0.0132: real time      0.0152
    --------------------------------------------
      LOOP:  cpu time     17.3966: real time     17.5725

 eigenvalue-minimisations  :  4976
 total energy-change (2. order) : 0.3023411E+03  (-0.1975149E+03)
 number of electron     792.0002459 magnetization
 augmentation part      214.1179171 magnetization

 Broyden mixing:
  rms(total) = 0.53116E+01    rms(broyden)= 0.53066E+01
  rms(prec ) = 0.58383E+01
  weight for this iteration     100.00

 eigenvalues of (default mixing * dielectric matrix)
  average eigenvalue GAMMA=   0.9655
  0.9655

 Free energy of the ion-electron system (eV)
  ---------------------------------------------------
  alpha Z        PSCENC =      3563.47650690
  Ewald energy   TEWEN  =    -48587.85276815
  -Hartree energ DENC   =    -19066.52663483
  -exchange      EXHF   =         0.00000000
  -V(xc)+E(xc)   XCENC  =      3337.88398180
  PAW double counting   =     68257.42243188   -68489.72464515
  entropy T*S    EENTRO =        -0.00000000
  eigenvalues    EBANDS =     -8647.36476358
  atomic energy  EATOM  =     68656.39924158
  Solvation  Ediel_sol  =         0.00000000
  ---------------------------------------------------
  free energy    TOTEN  =      -976.28664955 eV

  energy without entropy =     -976.28664955  energy(sigma->0) =     -976.28664955


--------------------------------------------------------------------------------------------------------




--------------------------------------- Iteration      1(   7)  ---------------------------------------


    POTLOK:  cpu time      0.2050: real time      0.2070
    SETDIJ:  cpu time      0.0119: real time      0.0121
     EDDAV:  cpu time     18.0366: real time     18.2095
       DOS:  cpu time      0.0006: real time      0.0006
    CHARGE:  cpu time      0.2372: real time      0.2453
    MIXING:  cpu time      0.0129: real time      0.0131
    --------------------------------------------
      LOOP:  cpu time     18.5042: real time     18.6874

 eigenvalue-minimisations  :  5336
 total energy-change (2. order) : 0.4253006E+01  (-0.2860724E+02)
 number of electron     792.0002651 magnetization
 augmentation part      207.3333452 magnetization

 Broyden mixing:
  rms(total) = 0.45958E+01    rms(broyden)= 0.45955E+01
  rms(prec ) = 0.47887E+01
  weight for this iteration     100.00

 eigenvalues of (default mixing * dielectric matrix)
  average eigenvalue GAMMA=   1.8451
  0.7378  2.9525

 Free energy of the ion-electron system (eV)
  ---------------------------------------------------
  alpha Z        PSCENC =      3563.47650690
  Ewald energy   TEWEN  =    -48587.85276815
  -Hartree energ DENC   =    -18909.58307248
  -exchange      EXHF   =         0.00000000
  -V(xc)+E(xc)   XCENC  =      3318.67312878
  PAW double counting   =     75265.77903698   -75509.09917415
  entropy T*S    EENTRO =        -0.00000000
  eigenvalues    EBANDS =     -8769.82654298
  atomic energy  EATOM  =     68656.39924158
  Solvation  Ediel_sol  =         0.00000000
  ---------------------------------------------------
  free energy    TOTEN  =      -972.03364352 eV

  energy without entropy =     -972.03364352  energy(sigma->0) =     -972.03364352


--------------------------------------------------------------------------------------------------------




--------------------------------------- Iteration      1(   8)  ---------------------------------------


    POTLOK:  cpu time      0.2077: real time      0.2101
    SETDIJ:  cpu time      0.0196: real time      0.0198
     EDDAV:  cpu time     17.5174: real time     17.6825
       DOS:  cpu time      0.0006: real time      0.0006
    CHARGE:  cpu time      0.2375: real time      0.2456
    MIXING:  cpu time      0.0132: real time      0.0134
    --------------------------------------------
      LOOP:  cpu time     17.9961: real time     18.1720

 eigenvalue-minimisations  :  5032
 total energy-change (2. order) :-0.9879999E-01  (-0.1106128E+02)
 number of electron     792.0002585 magnetization
 augmentation part      215.5772854 magnetization

 Broyden mixing:
  rms(total) = 0.33707E+01    rms(broyden)= 0.33705E+01
  rms(prec ) = 0.36694E+01
  weight for this iteration     100.00

 eigenvalues of (default mixing * dielectric matrix)
  average eigenvalue GAMMA=   1.2326
  2.1640  0.9331  0.6005

 Free energy of the ion-electron system (eV)
  ---------------------------------------------------
  alpha Z        PSCENC =      3563.47650690
  Ewald energy   TEWEN  =    -48587.85276815
  -Hartree energ DENC   =    -18532.20570832
  -exchange      EXHF   =         0.00000000
  -V(xc)+E(xc)   XCENC  =      3303.88440475
  PAW double counting   =     93884.90141990   -94200.53062138
  entropy T*S    EENTRO =        -0.00000000
  eigenvalues    EBANDS =     -9060.20491878
  atomic energy  EATOM  =     68656.39924158
  Solvation  Ediel_sol  =         0.00000000
  ---------------------------------------------------
  free energy    TOTEN  =      -972.13244351 eV

  energy without entropy =     -972.13244351  energy(sigma->0) =     -972.13244351


--------------------------------------------------------------------------------------------------------




--------------------------------------- Iteration      1(   9)  ---------------------------------------


    POTLOK:  cpu time      0.2212: real time      0.2236
    SETDIJ:  cpu time      0.0086: real time      0.0087
     EDDAV:  cpu time     17.5865: real time     17.7551
       DOS:  cpu time      0.0007: real time      0.0007
    CHARGE:  cpu time      0.2334: real time      0.2409
    MIXING:  cpu time      0.0137: real time      0.0139
    --------------------------------------------
      LOOP:  cpu time     18.0641: real time     18.2429

 eigenvalue-minimisations  :  5128
 total energy-change (2. order) : 0.5583262E+01  (-0.3487282E+01)
 number of electron     792.0002633 magnetization
 augmentation part      211.4570044 magnetization

 Broyden mixing:
  rms(total) = 0.24632E+00    rms(broyden)= 0.24556E+00
  rms(prec ) = 0.27098E+00
  weight for this iteration     100.00

 eigenvalues of (default mixing * dielectric matrix)
  average eigenvalue GAMMA=   1.2382
  2.2090  1.0601  1.0601  0.6237

 Free energy of the ion-electron system (eV)
  ---------------------------------------------------
  alpha Z        PSCENC =      3563.47650690
  Ewald energy   TEWEN  =    -48587.85276815
  -Hartree energ DENC   =    -18677.99287579
  -exchange      EXHF   =         0.00000000
  -V(xc)+E(xc)   XCENC  =      3308.82300865
  PAW double counting   =     88572.25743732   -88868.49822111
  entropy T*S    EENTRO =        -0.00000000
  eigenvalues    EBANDS =     -8933.16151048
  atomic energy  EATOM  =     68656.39924158
  Solvation  Ediel_sol  =         0.00000000
  ---------------------------------------------------
  free energy    TOTEN  =      -966.54918108 eV

  energy without entropy =     -966.54918108  energy(sigma->0) =     -966.54918108


--------------------------------------------------------------------------------------------------------




--------------------------------------- Iteration      1(  10)  ---------------------------------------


    POTLOK:  cpu time      0.2053: real time      0.2078
    SETDIJ:  cpu time      0.0184: real time      0.0185
     EDDAV:  cpu time     17.8785: real time     18.0490
       DOS:  cpu time      0.0006: real time      0.0006
    CHARGE:  cpu time      0.2362: real time      0.2442
    MIXING:  cpu time      0.0139: real time      0.0140
    --------------------------------------------
      LOOP:  cpu time     18.3529: real time     18.5342

 eigenvalue-minimisations  :  5280
 total energy-change (2. order) :-0.5846955E-01  (-0.9673117E-01)
 number of electron     792.0002623 magnetization
 augmentation part      211.5754980 magnetization

 Broyden mixing:
  rms(total) = 0.24027E+00    rms(broyden)= 0.24023E+00
  rms(prec ) = 0.26540E+00
  weight for this iteration     100.00

 eigenvalues of (default mixing * dielectric matrix)
  average eigenvalue GAMMA=   1.3234
  2.5196  1.8333  1.0261  0.6783  0.5600

 Free energy of the ion-electron system (eV)
  ---------------------------------------------------
  alpha Z        PSCENC =      3563.47650690
  Ewald energy   TEWEN  =    -48587.85276815
  -Hartree energ DENC   =    -18711.06448739
  -exchange      EXHF   =         0.00000000
  -V(xc)+E(xc)   XCENC  =      3311.27902949
  PAW double counting   =     88924.84885643   -89224.88545606
  entropy T*S    EENTRO =        -0.00000000
  eigenvalues    EBANDS =     -8898.80857343
  atomic energy  EATOM  =     68656.39924158
  Solvation  Ediel_sol  =         0.00000000
  ---------------------------------------------------
  free energy    TOTEN  =      -966.60765063 eV

  energy without entropy =     -966.60765063  energy(sigma->0) =     -966.60765063


--------------------------------------------------------------------------------------------------------




--------------------------------------- Iteration      1(  11)  ---------------------------------------


    POTLOK:  cpu time      0.2137: real time      0.2160
    SETDIJ:  cpu time      0.0148: real time      0.0150
     EDDAV:  cpu time     16.5560: real time     16.7218
       DOS:  cpu time      0.0004: real time      0.0004
    CHARGE:  cpu time      0.2316: real time      0.2343
    MIXING:  cpu time      0.0133: real time      0.0134
    --------------------------------------------
      LOOP:  cpu time     17.0298: real time     17.2010

 eigenvalue-minimisations  :  4608
 total energy-change (2. order) :-0.1600651E-01  (-0.1655170E-01)
 number of electron     792.0002620 magnetization
 augmentation part      211.4271151 magnetization

 Broyden mixing:
  rms(total) = 0.15588E+00    rms(broyden)= 0.15587E+00
  rms(prec ) = 0.18867E+00
  weight for this iteration     100.00

 eigenvalues of (default mixing * dielectric matrix)
  average eigenvalue GAMMA=   1.2808
  2.5240  1.8174  1.0725  1.0725  0.6210  0.5773

 Free energy of the ion-electron system (eV)
  ---------------------------------------------------
  alpha Z        PSCENC =      3563.47650690
  Ewald energy   TEWEN  =    -48587.85276815
  -Hartree energ DENC   =    -18741.28215922
  -exchange      EXHF   =         0.00000000
  -V(xc)+E(xc)   XCENC  =      3313.20136988
  PAW double counting   =     89219.88979164   -89522.64389713
  entropy T*S    EENTRO =        -0.00000000
  eigenvalues    EBANDS =     -8867.81174265
  atomic energy  EATOM  =     68656.39924158
  Solvation  Ediel_sol  =         0.00000000
  ---------------------------------------------------
  free energy    TOTEN  =      -966.62365715 eV

  energy without entropy =     -966.62365715  energy(sigma->0) =     -966.62365715


--------------------------------------------------------------------------------------------------------




--------------------------------------- Iteration      1(  12)  ---------------------------------------


    POTLOK:  cpu time      0.1732: real time      0.1757
    SETDIJ:  cpu time      0.0227: real time      0.0234
     EDDAV:  cpu time     18.0036: real time     18.1729
       DOS:  cpu time      0.0006: real time      0.0006
    CHARGE:  cpu time      0.2215: real time      0.2236
    MIXING:  cpu time      0.0123: real time      0.0124
    --------------------------------------------
      LOOP:  cpu time     18.4339: real time     18.6086

 eigenvalue-minimisations  :  5280
 total energy-change (2. order) : 0.2768979E-01  (-0.2922974E-01)
 number of electron     792.0002627 magnetization
 augmentation part      211.1803846 magnetization

 Broyden mixing:
  rms(total) = 0.54063E-01    rms(broyden)= 0.53978E-01
  rms(prec ) = 0.61988E-01
  weight for this iteration     100.00

 eigenvalues of (default mixing * dielectric matrix)
  average eigenvalue GAMMA=   1.2524
  2.5821  1.6463  1.6463  0.9889  0.7149  0.5943  0.5943

 Free energy of the ion-electron system (eV)
  ---------------------------------------------------
  alpha Z        PSCENC =      3563.47650690
  Ewald energy   TEWEN  =    -48587.85276815
  -Hartree energ DENC   =    -18738.20985911
  -exchange      EXHF   =         0.00000000
  -V(xc)+E(xc)   XCENC  =      3312.65746991
  PAW double counting   =     89222.59714576   -89524.40937147
  entropy T*S    EENTRO =        -0.00000000
  eigenvalues    EBANDS =     -8871.25433277
  atomic energy  EATOM  =     68656.39924158
  Solvation  Ediel_sol  =         0.00000000
  ---------------------------------------------------
  free energy    TOTEN  =      -966.59596736 eV

  energy without entropy =     -966.59596736  energy(sigma->0) =     -966.59596736


--------------------------------------------------------------------------------------------------------




--------------------------------------- Iteration      1(  13)  ---------------------------------------


    POTLOK:  cpu time      0.1632: real time      0.1650
    SETDIJ:  cpu time      0.0246: real time      0.0247
     EDDAV:  cpu time     17.3893: real time     17.5562
       DOS:  cpu time      0.0006: real time      0.0006
    CHARGE:  cpu time      0.2369: real time      0.2385
    MIXING:  cpu time      0.0154: real time      0.0155
    --------------------------------------------
      LOOP:  cpu time     17.8300: real time     18.0005

 eigenvalue-minimisations  :  5280
 total energy-change (2. order) : 0.5721431E-03  (-0.1516189E-02)
 number of electron     792.0002626 magnetization
 augmentation part      211.2294768 magnetization

 Broyden mixing:
  rms(total) = 0.22374E-01    rms(broyden)= 0.22367E-01
  rms(prec ) = 0.27032E-01
  weight for this iteration     100.00

 eigenvalues of (default mixing * dielectric matrix)
  average eigenvalue GAMMA=   1.2039
  2.5646  1.7009  1.7009  1.0118  0.7313  0.7313  0.6117  0.5781

 Free energy of the ion-electron system (eV)
  ---------------------------------------------------
  alpha Z        PSCENC =      3563.47650690
  Ewald energy   TEWEN  =    -48587.85276815
  -Hartree energ DENC   =    -18737.62442704
  -exchange      EXHF   =         0.00000000
  -V(xc)+E(xc)   XCENC  =      3312.65674533
  PAW double counting   =     89265.18709206   -89566.97687430
  entropy T*S    EENTRO =        -0.00000000
  eigenvalues    EBANDS =     -8871.86091160
  atomic energy  EATOM  =     68656.39924158
  Solvation  Ediel_sol  =         0.00000000
  ---------------------------------------------------
  free energy    TOTEN  =      -966.59539521 eV

  energy without entropy =     -966.59539521  energy(sigma->0) =     -966.59539521


--------------------------------------------------------------------------------------------------------




--------------------------------------- Iteration      1(  14)  ---------------------------------------


    POTLOK:  cpu time      0.2141: real time      0.2160
    SETDIJ:  cpu time      0.0095: real time      0.0098
     EDDAV:  cpu time     18.6421: real time     18.8140
       DOS:  cpu time      0.0006: real time      0.0006
    CHARGE:  cpu time      0.2309: real time      0.2331
    MIXING:  cpu time      0.0135: real time      0.0137
    --------------------------------------------
      LOOP:  cpu time     19.1106: real time     19.2872

 eigenvalue-minimisations  :  5304
 total energy-change (2. order) : 0.9641454E-04  (-0.1035924E-03)
 number of electron     792.0002626 magnetization
 augmentation part      211.2216493 magnetization

 Broyden mixing:
  rms(total) = 0.18816E-01    rms(broyden)= 0.18815E-01
  rms(prec ) = 0.22338E-01
  weight for this iteration     100.00

 eigenvalues of (default mixing * dielectric matrix)
  average eigenvalue GAMMA=   1.2423
  2.5238  1.9486  1.9486  1.0265  0.9775  0.9775  0.6461  0.5662  0.5662

 Free energy of the ion-electron system (eV)
  ---------------------------------------------------
  alpha Z        PSCENC =      3563.47650690
  Ewald energy   TEWEN  =    -48587.85276815
  -Hartree energ DENC   =    -18738.96431206
  -exchange      EXHF   =         0.00000000
  -V(xc)+E(xc)   XCENC  =      3312.73021628
  PAW double counting   =     89243.54763984   -89545.22984832
  entropy T*S    EENTRO =        -0.00000000
  eigenvalues    EBANDS =     -8870.70197486
  atomic energy  EATOM  =     68656.39924158
  Solvation  Ediel_sol  =         0.00000000
  ---------------------------------------------------
  free energy    TOTEN  =      -966.59529880 eV

  energy without entropy =     -966.59529880  energy(sigma->0) =     -966.59529880


--------------------------------------------------------------------------------------------------------




--------------------------------------- Iteration      1(  15)  ---------------------------------------


    POTLOK:  cpu time      0.1741: real time      0.1763
    SETDIJ:  cpu time      0.0242: real time      0.0243
     EDDAV:  cpu time     18.5040: real time     18.6780
       DOS:  cpu time      0.0006: real time      0.0006
    CHARGE:  cpu time      0.2199: real time      0.2215
    MIXING:  cpu time      0.0137: real time      0.0138
    --------------------------------------------
      LOOP:  cpu time     18.9365: real time     19.1145

 eigenvalue-minimisations  :  5344
 total energy-change (2. order) : 0.2093324E-04  (-0.1528909E-03)
 number of electron     792.0002625 magnetization
 augmentation part      211.2301566 magnetization

 Broyden mixing:
  rms(total) = 0.97858E-02    rms(broyden)= 0.97818E-02
  rms(prec ) = 0.11812E-01
  weight for this iteration     100.00

 eigenvalues of (default mixing * dielectric matrix)
  average eigenvalue GAMMA=   1.2276
  2.6386  2.2681  2.1322  0.9107  0.9107  0.8528  0.8528  0.5927  0.5588  0.5588

 Free energy of the ion-electron system (eV)
  ---------------------------------------------------
  alpha Z        PSCENC =      3563.47650690
  Ewald energy   TEWEN  =    -48587.85276815
  -Hartree energ DENC   =    -18740.08471000
  -exchange      EXHF   =         0.00000000
  -V(xc)+E(xc)   XCENC  =      3312.79524679
  PAW double counting   =     89229.04147588   -89530.57200397
  entropy T*S    EENTRO =        -0.00000000
  eigenvalues    EBANDS =     -8869.79826690
  atomic energy  EATOM  =     68656.39924158
  Solvation  Ediel_sol  =         0.00000000
  ---------------------------------------------------
  free energy    TOTEN  =      -966.59527787 eV

  energy without entropy =     -966.59527787  energy(sigma->0) =     -966.59527787


--------------------------------------------------------------------------------------------------------




--------------------------------------- Iteration      1(  16)  ---------------------------------------


    POTLOK:  cpu time      0.1647: real time      0.1682
    SETDIJ:  cpu time      0.0192: real time      0.0198
     EDDAV:  cpu time     17.3218: real time     17.4897
       DOS:  cpu time      0.0006: real time      0.0006
    CHARGE:  cpu time      0.2369: real time      0.2402
    MIXING:  cpu time      0.0175: real time      0.0176
    --------------------------------------------
      LOOP:  cpu time     17.7606: real time     17.9360

 eigenvalue-minimisations  :  5200
 total energy-change (2. order) : 0.6833396E-04  (-0.8215541E-04)
 number of electron     792.0002625 magnetization
 augmentation part      211.2436624 magnetization

 Broyden mixing:
  rms(total) = 0.47251E-02    rms(broyden)= 0.47213E-02
  rms(prec ) = 0.54978E-02
  weight for this iteration     100.00

 eigenvalues of (default mixing * dielectric matrix)
  average eigenvalue GAMMA=   1.2190
  2.7512  2.4279  1.8878  0.8755  0.8755  1.0146  1.0146  0.8327  0.6068  0.6068
  0.5157

 Free energy of the ion-electron system (eV)
  ---------------------------------------------------
  alpha Z        PSCENC =      3563.47650690
  Ewald energy   TEWEN  =    -48587.85276815
  -Hartree energ DENC   =    -18740.54454760
  -exchange      EXHF   =         0.00000000
  -V(xc)+E(xc)   XCENC  =      3312.83344898
  PAW double counting   =     89230.90185997   -89532.40275298
  entropy T*S    EENTRO =        -0.00000000
  eigenvalues    EBANDS =     -8869.40619822
  atomic energy  EATOM  =     68656.39924158
  Solvation  Ediel_sol  =         0.00000000
  ---------------------------------------------------
  free energy    TOTEN  =      -966.59520953 eV

  energy without entropy =     -966.59520953  energy(sigma->0) =     -966.59520953


--------------------------------------------------------------------------------------------------------




--------------------------------------- Iteration      1(  17)  ---------------------------------------


    POTLOK:  cpu time      0.2121: real time      0.2151
    SETDIJ:  cpu time      0.0109: real time      0.0114
     EDDAV:  cpu time     18.9825: real time     19.1627
       DOS:  cpu time      0.0006: real time      0.0006
    CHARGE:  cpu time      0.2353: real time      0.2370
    MIXING:  cpu time      0.0154: real time      0.0155
    --------------------------------------------
      LOOP:  cpu time     19.4568: real time     19.6422

 eigenvalue-minimisations  :  5304
 total energy-change (2. order) : 0.1604523E-05  (-0.2282429E-04)
 number of electron     792.0002625 magnetization
 augmentation part      211.2415977 magnetization

 Broyden mixing:
  rms(total) = 0.24400E-02    rms(broyden)= 0.24367E-02
  rms(prec ) = 0.30050E-02
  weight for this iteration     100.00

 eigenvalues of (default mixing * dielectric matrix)
  average eigenvalue GAMMA=   1.1700
  2.8533  2.3735  1.9256  1.0582  1.0582  0.8829  0.8829  0.6463  0.6463  0.6218
  0.5452  0.5452

 Free energy of the ion-electron system (eV)
  ---------------------------------------------------
  alpha Z        PSCENC =      3563.47650690
  Ewald energy   TEWEN  =    -48587.85276815
  -Hartree energ DENC   =    -18740.86512444
  -exchange      EXHF   =         0.00000000
  -V(xc)+E(xc)   XCENC  =      3312.85107050
  PAW double counting   =     89227.57388912   -89529.07976578
  entropy T*S    EENTRO =        -0.00000000
  eigenvalues    EBANDS =     -8869.09825765
  atomic energy  EATOM  =     68656.39924158
  Solvation  Ediel_sol  =         0.00000000
  ---------------------------------------------------
  free energy    TOTEN  =      -966.59520793 eV

  energy without entropy =     -966.59520793  energy(sigma->0) =     -966.59520793


--------------------------------------------------------------------------------------------------------




--------------------------------------- Iteration      1(  18)  ---------------------------------------


    POTLOK:  cpu time      0.1840: real time      0.1864
    SETDIJ:  cpu time      0.0242: real time      0.0247
     EDDAV:  cpu time     17.5899: real time     17.7568
       DOS:  cpu time      0.0006: real time      0.0006
    CHARGE:  cpu time      0.2257: real time      0.2272
    MIXING:  cpu time      0.0146: real time      0.0147
    --------------------------------------------
      LOOP:  cpu time     18.0390: real time     18.2103

 eigenvalue-minimisations  :  5120
 total energy-change (2. order) :-0.3787733E-05  (-0.2717945E-05)
 number of electron     792.0002625 magnetization
 augmentation part      211.2428701 magnetization

 Broyden mixing:
  rms(total) = 0.27749E-02    rms(broyden)= 0.27748E-02
  rms(prec ) = 0.32891E-02
  weight for this iteration     100.00

 eigenvalues of (default mixing * dielectric matrix)
  average eigenvalue GAMMA=   1.1695
  2.9108  2.3400  1.8988  1.2696  1.0780  0.8047  0.8047  0.9028  0.9028  0.6456
  0.5821  0.5821  0.4814

 Free energy of the ion-electron system (eV)
  ---------------------------------------------------
  alpha Z        PSCENC =      3563.47650690
  Ewald energy   TEWEN  =    -48587.85276815
  -Hartree energ DENC   =    -18740.83997655
  -exchange      EXHF   =         0.00000000
  -V(xc)+E(xc)   XCENC  =      3312.84912415
  PAW double counting   =     89229.14583795   -89530.65717634
[...]
      7.58456      3.79228      1.99678    -0.00321  0.00731 -2.90047 ( -0.63474  6.00000)
      7.58456      7.58456      1.99678     0.00041 -0.00009 -2.88588 ( -0.63495  6.00000)
      0.00000      1.89614      0.40437    -0.00003 -0.00054 -2.89666 ( -0.63483  6.00000)
      0.00000      5.68842      0.40437     0.00000  0.00077 -2.89370 ( -0.63480  6.00000)
      0.00000      9.48070      0.40437     0.00000 -0.00031 -2.89258 ( -0.63483  6.00000)
      3.79228      1.89614      0.40437    -0.00126 -0.00137 -2.90100 ( -0.63484  6.00000)
      3.79228      5.68842      0.40437     0.00003  0.00351 -2.89307 ( -0.63482  6.00000)
      3.79228      9.48070      0.40437     0.00133 -0.00161 -2.88784 ( -0.63484  6.00000)
      7.58456      1.89614      0.40437     0.00124 -0.00135 -2.90098 ( -0.63484  6.00000)
      7.58456      5.68842      0.40437    -0.00003  0.00352 -2.89310 ( -0.63482  6.00000)
      7.58456      9.48070      0.40437    -0.00136 -0.00160 -2.88784 ( -0.63484  6.00000)
      1.89614      1.89614      2.80551    -0.01101 -0.00016 -2.89100 ( -0.63486  6.00000)
      1.89614      5.68842      2.80551    -0.00010 -0.00232 -2.89400 ( -0.63483  6.00000)
      1.89614      9.48070      2.80551     0.01049 -0.00074 -2.89975 ( -0.63483  6.00000)
      5.68842      1.89614      2.80551    -0.00000 -0.00906 -2.89783 ( -0.63487  6.00000)
      5.68842      5.68842      2.80551     0.00003 -0.09703 -2.86624 ( -0.63468  6.00000)
      5.68842      9.48070      2.80551    -0.00003 -0.00998 -2.89445 ( -0.63476  6.00000)
      9.48070      1.89614      2.80551     0.01100 -0.00017 -2.89100 ( -0.63486  6.00000)
      9.48070      5.68842      2.80551     0.00006 -0.00229 -2.89403 ( -0.63483  6.00000)
      9.48070      9.48070      2.80551    -0.01049 -0.00074 -2.89973 ( -0.63483  6.00000)
 -----------------------------------------------------------------------------------------
    total drift (improves with k-points):   0.00001 -0.00004 -0.07331




--------------------------------------------------------------------------------------------------------




 MACROSCOPIC STATIC DIELECTRIC TENSOR (including local field effects in DFT)
 ------------------------------------------------------
           6.957933     0.000009    -0.000002
           0.000008     6.953767     0.023004
           0.000002     0.022998     6.371486
 ------------------------------------------------------



--------------------------------------------------------------------------------------------------------




--------------------------------------------------------------------------------------------------------




 MACROSCOPIC STATIC DIELECTRIC TENSOR (including local field effects in DFT)
 ------------------------------------------------------
           6.957933     0.000009    -0.000002
           0.000008     6.953767     0.023004
           0.000002     0.022998     6.371486
 ------------------------------------------------------


 PIEZOELECTRIC TENSOR (including local field effects)  for field in x, y, z        (e  Angst)
          XX          YY          ZZ          XY          YZ          ZX
  --------------------------------------------------------------------------------
  x    -0.00055     0.00050     0.00022     0.44904    -0.00053    -0.00114
  y     0.54109     0.06157     0.86700     0.00019     0.09557     0.00000
  z     0.04820     0.04141    -0.01082     0.00007    -0.01120    -0.00002

 PIEZOELECTRIC TENSOR (including local field effects)  for field in x, y, z        (C/m^2)
          XX          YY          ZZ          XY          YZ          ZX
  --------------------------------------------------------------------------------
  x    -0.00001     0.00001     0.00000     0.00579    -0.00001    -0.00001
  y     0.00697     0.00079     0.01117     0.00000     0.00123     0.00000
  z     0.00062     0.00053    -0.00014     0.00000    -0.00014    -0.00000

 BORN EFFECTIVE CHARGES (including local field effects) (in |e|, cummulative output)
 ---------------------------------------------------------------------------------
 ion    1
    1     6.64874    -0.00121     0.00340
    2     0.00630     6.65761    -0.01563
    3     0.00216     0.00342     5.77964
 ion    2
    1     6.65213    -0.00034     0.00093
    2     0.02974     6.66236    -0.00367
    3    -0.00629    -0.00384     5.78799
 ion    3
    1     6.67121     0.00125    -0.00325
    2     0.01622     6.65756    -0.01811
    3     0.00261     0.00568     5.79588
 ion    4
    1     6.62772    -0.00004    -0.00001
    2     0.00003     6.60067    -0.04466
    3    -0.00002     0.28321     5.76416
 ion    5
    1     6.59619     0.00003     0.00003
    2     0.00000     6.57355     0.33102
    3     0.00001     0.35296     5.74955
 ion    6
    1     6.68670     0.00000     0.00001
    2    -0.00001     6.59862    -0.02818
    3    -0.00001     0.27708     5.80974
 ion    7
    1     6.64872     0.00120    -0.00338
    2    -0.00628     6.65759    -0.01565
    3    -0.00217     0.00341     5.77963
 ion    8
    1     6.65214     0.00029    -0.00094
    2    -0.02968     6.66240    -0.00366
    3     0.00633    -0.00385     5.78800
 ion    9
    1     6.67122    -0.00122     0.00326
    2    -0.01620     6.65759    -0.01807
    3    -0.00264     0.00569     5.79590
 ion   10
    1     6.66081     0.00003     0.00033
    2    -0.00172     6.65662     0.01035
    3     0.00055    -0.00008     5.78704
 ion   11
    1     6.65404    -0.00042    -0.00395
    2    -0.02831     6.66300    -0.01848
    3     0.00250    -0.00056     5.78632
 ion   12
    1     6.66791     0.00044     0.00511
    2    -0.02259     6.66266    -0.01987
    3    -0.00120     0.00072     5.79161
 ion   13
    1     6.65635     0.00000     0.00001
    2     0.00002     6.64430     0.03387
    3     0.00002    -0.00066     5.78687
 ion   14
    1     6.62277     0.00008    -0.00002
    2     0.00003     6.66903     0.25184
    3    -0.00003     0.00113     5.82130
 ion   15
    1     6.69744     0.00005     0.00002
    2     0.00001     6.66525     0.20595
    3     0.00001    -0.00068     5.72112
 ion   16
    1     6.66081    -0.00001    -0.00027
    2     0.00174     6.65661     0.01031
    3    -0.00054    -0.00010     5.78703
 ion   17
    1     6.65404     0.00043     0.00398
    2     0.02837     6.66298    -0.01850
    3    -0.00251    -0.00053     5.78632
 ion   18
    1     6.66792    -0.00040    -0.00508
    2     0.02258     6.66261    -0.01988
    3     0.00119     0.00068     5.79164
 ion   19
    1     6.65661     0.00001    -0.00002
    2     0.00001     6.65502    -0.00431
    3    -0.00003     0.00152     5.78720
 ion   20
    1     6.66218     0.00001     0.00005
    2    -0.00001     6.66185     0.01378
    3    -0.00001    -0.00147     5.78819
 ion   21
    1     6.65646    -0.00002     0.00001
    2    -0.00001     6.66164     0.01325
    3     0.00002    -0.00017     5.78637
 ion   22
    1     6.66041    -0.00000    -0.00037
    2    -0.00284     6.65635    -0.00844
    3     0.00042     0.00567     5.78679
 ion   23
    1     6.68322    -0.00001     0.01371
    2    -0.02509     6.66357     0.04247
    3    -0.00030    -0.00414     5.80138
 ion   24
    1     6.63633     0.00005    -0.01604
    2    -0.02114     6.66315     0.04148
    3    -0.00006    -0.00259     5.76937
 ion   25
    1     6.66041    -0.00003     0.00036
    2     0.00287     6.65638    -0.00844
    3    -0.00047     0.00566     5.78680
 ion   26
    1     6.68321    -0.00001    -0.01370
    2     0.02511     6.66355     0.04249
    3     0.00028    -0.00415     5.80139
 ion   27
    1     6.63632    -0.00004     0.01604
    2     0.02111     6.66314     0.04141
    3     0.00005    -0.00262     5.76940
 ion   28
    1     6.66110    -0.00001    -0.00003
    2     0.00003     6.65967     0.01005
    3     0.00002    -0.00094     5.78726
 ion   29
    1     6.65584    -0.00003    -0.00000
    2     0.00005     6.65790     0.00188
    3     0.00002     0.00018     5.78542
 ion   30
    1     6.65750     0.00006    -0.00003
    2     0.00000     6.65949     0.01277
    3     0.00000     0.00083     5.78822
 ion   31
    1     6.68600    -0.00025    -0.02977
    2     0.00486     6.65748     0.01804
    3     0.00238    -0.00349     5.81250
 ion   32
    1     6.66585    -0.00023    -0.01081
    2     0.03725     6.65980     0.02672
    3    -0.01092     0.00011     5.78106
 ion   33
    1     6.63447     0.00014     0.03034
    2     0.00887     6.65751     0.02685
    3    -0.00116     0.00320     5.76609
 ion   34
    1     6.68597     0.00028     0.02971
    2    -0.00488     6.65749     0.01806
    3    -0.00235    -0.00348     5.81247
 ion   35
    1     6.66587     0.00026     0.01074
    2    -0.03722     6.65983     0.02673
    3     0.01092     0.00012     5.78107
 ion   36
    1     6.63446    -0.00013    -0.03041
    2    -0.00886     6.65750     0.02683
    3     0.00124     0.00319     5.76606
 ion   37
    1    -5.53798    -0.00001    -0.00000
    2     0.00001    -1.12625    -0.00131
    3     0.00000     0.00030    -2.89039
 ion   38
    1    -5.53528     0.00002    -0.00003
    2    -0.00001    -1.12278    -0.00418
    3    -0.00005    -0.00242    -2.89265
 ion   39
    1    -5.53680     0.00000     0.00002
    2     0.00000    -1.11927    -0.00227
    3     0.00002    -0.00008    -2.89814
 ion   40
    1    -5.51577     0.01052     0.03256
    2    -0.03129    -1.11382     0.00229
    3    -0.02033    -0.00975    -2.91146
 ion   41
    1    -5.50629    -0.13306     0.01363
    2    -0.08228    -1.11785    -0.01083
    3     0.01133    -0.01793    -2.89224
 ion   42
    1    -5.55438     0.00933    -0.03272
    2    -0.04999    -1.12485    -0.00532
    3     0.01333    -0.01014    -2.87792
 ion   43
    1    -5.51573    -0.01050    -0.03255
    2     0.03127    -1.11380     0.00228
    3     0.02034    -0.00975    -2.91148
 ion   44
    1    -5.50633     0.13307    -0.01360
    2     0.08227    -1.11785    -0.01083
    3    -0.01133    -0.01796    -2.89222
 ion   45
    1    -5.55435    -0.00929     0.03274
    2     0.05000    -1.12485    -0.00530
    3    -0.01336    -0.01012    -2.87792
 ion   46
    1    -1.12129    -0.00086     0.00141
    2     0.00349    -5.53354     0.01111
    3    -0.00000     0.00233    -2.89361
 ion   47
    1    -1.12335     0.00243    -0.00037
    2     0.00194    -5.54153    -0.00084
    3    -0.00001    -0.00324    -2.89429
 ion   48
    1    -1.12606    -0.00142    -0.00181
    2     0.00305    -5.53689     0.01221
    3    -0.00038     0.00065    -2.89375
 ion   49
    1    -1.12272    -0.00005    -0.00001
    2    -0.00003    -5.47819     0.03602
    3     0.00000     0.02030    -2.85509
 ion   50
    1    -1.12196    -0.00003    -0.00001
    2    -0.00001    -5.53765    -0.04963
    3    -0.00002    -0.02116    -2.88130
 ion   51
    1    -1.12185    -0.00000    -0.00000
    2     0.00001    -5.57190     0.04810
    3     0.00001     0.02250    -2.92743
 ion   52
    1    -1.12129     0.00085    -0.00140
    2    -0.00351    -5.53354     0.01112
    3     0.00002     0.00232    -2.89361
 ion   53
    1    -1.12334    -0.00247     0.00036
    2    -0.00195    -5.54152    -0.00083
    3     0.00001    -0.00326    -2.89427
 ion   54
    1    -1.12607     0.00138     0.00180
    2    -0.00308    -5.53682     0.01223
    3     0.00037     0.00069    -2.89377
 ion   55
    1    -1.12337    -0.00653    -0.00005
    2     0.00203    -5.53360    -0.00824
    3    -0.00010    -0.00852    -2.89373
 ion   56
    1    -1.11903     0.00198    -0.00116
    2    -0.00165    -5.53956     0.01641
    3    -0.00166     0.00525    -2.89616
 ion   57
    1    -1.12551    -0.00088    -0.00052
    2    -0.00373    -5.53454     0.01840
    3     0.00231     0.00051    -2.89381
 ion   58
    1    -1.12140     0.00001    -0.00000
    2    -0.00001    -5.51044    -0.01720
    3    -0.00002    -0.17462    -2.89252
 ion   59
    1    -1.14959     0.00003     0.00002
    2     0.00001    -5.28871    -0.27401
    3     0.00002    -0.28538    -2.93553
 ion   60
    1    -1.07995    -0.00001    -0.00000
    2     0.00000    -5.66021    -0.26494
    3     0.00001    -0.28063    -2.82695
 ion   61
    1    -1.12339     0.00654     0.00003
    2    -0.00198    -5.53363    -0.00824
    3     0.00011    -0.00851    -2.89374
 ion   62
    1    -1.11903    -0.00197     0.00115
    2     0.00163    -5.53956     0.01645
    3     0.00167     0.00525    -2.89616
 ion   63
    1    -1.12550     0.00091     0.00055
    2     0.00374    -5.53451     0.01840
    3    -0.00231     0.00051    -2.89380
 ion   64
    1    -5.53753    -0.00002     0.00000
    2    -0.00003    -1.12167    -0.00104
    3     0.00001    -0.00160    -2.89324
 ion   65
    1    -5.53537    -0.00001    -0.00004
    2    -0.00003    -1.12718    -0.00268
    3     0.00000     0.00065    -2.89244
 ion   66
    1    -5.53972    -0.00002    -0.00001
    2     0.00001    -1.12017    -0.00166
    3    -0.00000     0.00066    -2.89528
 ion   67
    1    -5.53670     0.00334     0.00041
    2    -0.00410    -1.12103    -0.00295
    3    -0.00040    -0.00515    -2.89344
 ion   68
    1    -5.52307    -0.00221    -0.01861
    2     0.05301    -1.13110    -0.02104
    3     0.01704     0.00312    -2.89418
 ion   69
    1    -5.55140    -0.00181     0.02089
    2     0.04269    -1.11709    -0.01747
    3    -0.02165     0.00336    -2.89109
 ion   70
    1    -5.53670    -0.00335    -0.00045
    2     0.00409    -1.12103    -0.00297
    3     0.00038    -0.00516    -2.89343
 ion   71
    1    -5.52304     0.00219     0.01861
    2    -0.05306    -1.13109    -0.02105
    3    -0.01702     0.00313    -2.89418
 ion   72
    1    -5.55144     0.00178    -0.02093
    2    -0.04272    -1.11710    -0.01745
    3     0.02165     0.00337    -2.89111
 ion   73
    1    -5.53662     0.00048    -0.00004
    2    -0.00024    -1.12186     0.00061
    3     0.00014     0.00092    -2.89381
 ion   74
    1    -5.53907     0.00006     0.00214
    2     0.01015    -1.12647    -0.00388
    3     0.00601    -0.00027    -2.89130
 ion   75
    1    -5.53431    -0.00031    -0.00244
    2     0.00793    -1.12103    -0.00321
    3    -0.00598    -0.00059    -2.89615
 ion   76
    1    -5.53707     0.00002     0.00001
    2    -0.00000    -1.12140    -0.00326
    3     0.00001     0.00160    -2.89273
 ion   77
    1    -5.57127     0.00001    -0.00002
    2    -0.00001    -1.13663    -0.05935
    3     0.00003     0.00069    -2.90865
 ion   78
    1    -5.50023    -0.00003    -0.00000
    2     0.00001    -1.11005    -0.04877
    3     0.00001    -0.00019    -2.87008
 ion   79
    1    -5.53665    -0.00047     0.00002
    2     0.00023    -1.12186     0.00063
    3    -0.00009     0.00093    -2.89379
 ion   80
    1    -5.53904    -0.00003    -0.00214
    2    -0.01015    -1.12646    -0.00387
    3    -0.00600    -0.00026    -2.89131
 ion   81
    1    -5.53433     0.00032     0.00240
    2    -0.00791    -1.12103    -0.00324
    3     0.00596    -0.00060    -2.89618
 ion   82
    1    -1.12221    -0.00001     0.00000
    2    -0.00000    -5.53574     0.00359
    3     0.00000    -0.00168    -2.89310
 ion   83
    1    -1.12156     0.00002    -0.00000
    2    -0.00004    -5.53681    -0.00811
    3     0.00001     0.00086    -2.89609
 ion   84
    1    -1.12275    -0.00002    -0.00001
    2     0.00001    -5.53783    -0.00849
    3    -0.00001    -0.00010    -2.89128
 ion   85
    1    -1.12340    -0.00402     0.00005
    2     0.00076    -5.53376     0.00907
    3    -0.00017    -0.00746    -2.89370
 ion   86
    1    -1.12424     0.00278     0.00177
    2    -0.00256    -5.54769    -0.02163
    3     0.00320     0.00731    -2.89979
 ion   87
    1    -1.12341     0.00392    -0.00121
    2    -0.00375    -5.52498    -0.02403
    3    -0.00042    -0.00011    -2.88520
 ion   88
    1    -1.12343     0.00403    -0.00003
    2    -0.00073    -5.53379     0.00905
    3     0.00019    -0.00747    -2.89372
 ion   89
    1    -1.12423    -0.00281    -0.00178
    2     0.00257    -5.54768    -0.02164
    3    -0.00321     0.00731    -2.89979
 ion   90
    1    -1.12340    -0.00395     0.00121
    2     0.00371    -5.52499    -0.02398
    3     0.00041    -0.00009    -2.88520
 ion   91
    1    -1.12168     0.00001    -0.00001
    2     0.00003    -5.53503    -0.00663
    3    -0.00003    -0.00054    -2.89599
 ion   92
    1    -1.12221     0.00001    -0.00000
    2    -0.00000    -5.53955     0.00048
    3     0.00000     0.00077    -2.89302
 ion   93
    1    -1.12307    -0.00001     0.00000
    2    -0.00001    -5.53667    -0.00711
    3     0.00000    -0.00031    -2.89190
 ion   94
    1    -1.12506    -0.00200     0.00162
    2     0.00246    -5.53361    -0.01585
    3    -0.00126    -0.00137    -2.90032
 ion   95
    1    -1.12365     0.00444     0.00064
    2     0.00051    -5.54245    -0.00289
    3     0.00003     0.00351    -2.89239
 ion   96
    1    -1.12174    -0.00228    -0.00160
    2     0.00191    -5.53654    -0.01749
    3     0.00133    -0.00161    -2.88717
 ion   97
    1    -1.12504     0.00198    -0.00165
    2    -0.00252    -5.53359    -0.01588
    3     0.00124    -0.00135    -2.90030
 ion   98
    1    -1.12368    -0.00442    -0.00064
    2    -0.00049    -5.54242    -0.00288
    3    -0.00003     0.00352    -2.89242
 ion   99
    1    -1.12172     0.00228     0.00158
    2    -0.00191    -5.53651    -0.01743
    3    -0.00136    -0.00160    -2.88717
 ion  100
    1    -5.53624     0.00060    -0.00144
    2    -0.00455    -1.12617    -0.00236
    3    -0.01101    -0.00016    -2.89032
 ion  101
    1    -5.53621    -0.00257     0.00037
    2    -0.00469    -1.12327    -0.00011
    3    -0.00010    -0.00232    -2.89332
 ion  102
    1    -5.53683     0.00060     0.00178
    2    -0.00716    -1.11998    -0.00356
    3     0.01049    -0.00074    -2.89908
 ion  103
    1    -5.57854    -0.00005     0.00006
    2    -0.00001    -1.11965    -0.01863
    3    -0.00001    -0.00906    -2.89716
 ion  104
    1    -5.54900    -0.00004     0.00001
    2    -0.00001    -1.11805    -0.06121
    3     0.00003    -0.09703    -2.86556
 ion  105
    1    -5.49529     0.00001     0.00006
    2    -0.00001    -1.12423    -0.02532
    3    -0.00003    -0.00998    -2.89377
 ion  106
    1    -5.53623    -0.00059     0.00150
    2     0.00453    -1.12615    -0.00231
    3     0.01100    -0.00017    -2.89032
 ion  107
    1    -5.53627     0.00254    -0.00031
    2     0.00467    -1.12330    -0.00010
    3     0.00006    -0.00229    -2.89336
 ion  108
    1    -5.53680    -0.00065    -0.00172
    2     0.00713    -1.11997    -0.00358
    3    -0.01049    -0.00074    -2.89906


--------------------------------------------------------------------------------------------------------


     LOOP+:  cpu time   2181.6944: real time   2205.5496
    4ORBIT:  cpu time      0.0000: real time      0.0000

 total amount of memory used by VASP MPI-rank0   266717. kBytes
=======================================================================

   base      :      30000. kBytes
   nonlr-proj:      19548. kBytes
   fftplans  :      10927. kBytes
   grid      :      23181. kBytes
   one-center:       1679. kBytes
   wavefun   :     181382. kBytes



 General timing and accounting informations for this job:
 ========================================================

                  Total CPU time used (sec):     2186.694
                            User time (sec):     2111.397
                          System time (sec):       75.297
                         Elapsed time (sec):     2212.133

                   Maximum memory used (kb):     1091384.
                   Average memory used (kb):          N/A

                          Minor page faults:      3883170
                          Major page faults:            3
                 Voluntary context switches:        98683
