 vasp.6.3.0 20Jan22 (build Mar 29 2022 16:24:06) complex

 executed on             Bridges2 date 2023.01.10  17:44:42
 running on   32 total cores
 distrk:  each k-point on    4 cores,    8 groups
 distr:  one band on NCORE=   1 cores,    4 groups


--------------------------------------------------------------------------------------------------------


 INCAR:
   ICHARG = 2
   LWAVE = .FALSE.
   LCHARG = .FALSE.
   LVTOT = .FALSE.
   NCORE = 1
   KPAR = 8
   EDIFF = 1E-7
   NELM = 80
   PREC = Normal
   LREAL = Auto
   NELMIN = 4
   ENCUT = 400.0 eV
   ISPIN = 1
   ISMEAR = 0
   SIGMA = 0.10
   NSW = 0
   LEPSILON = .TRUE.
   LPEAD = .TRUE.
   ISYM = 0

 POTCAR:    PAW_PBE Ti_pv 07Sep2000
 POTCAR:    PAW_PBE O 08Apr2002
 -----------------------------------------------------------------------------
|                                                                             |
|           W    W    AA    RRRRR   N    N  II  N    N   GGGG   !!!           |
|           W    W   A  A   R    R  NN   N  II  NN   N  G    G  !!!           |
|           W    W  A    A  R    R  N N  N  II  N N  N  G       !!!           |
|           W WW W  AAAAAA  RRRRR   N  N N  II  N  N N  G  GGG   !            |
|           WW  WW  A    A  R   R   N   NN  II  N   NN  G    G                |
|           W    W  A    A  R    R  N    N  II  N    N   GGGG   !!!           |
|                                                                             |
|     For optimal performance we recommend to set                             |
|       NCORE = 2 up to number-of-cores-per-socket                            |
|     NCORE specifies how many cores store one orbital (NPAR=cpu/NCORE).      |
|     This setting can greatly improve the performance of VASP for DFT.       |
|     The default, NCORE=1 might be grossly inefficient on modern             |
|     multi-core architectures or massively parallel machines. Do your        |
|     own testing! More info at https://www.vasp.at/wiki/index.php/NCORE      |
|     Unfortunately you need to use the default for GW and RPA                |
|     calculations (for HF NCORE is supported but not extensively tested      |
|     yet).                                                                   |
|                                                                             |
 -----------------------------------------------------------------------------

 POTCAR:    PAW_PBE Ti_pv 07Sep2000
   VRHFIN =Ti: d3 s1
   LEXCH  = PE
   EATOM  =  1042.5995 eV,   76.6289 Ry

   TITEL  = PAW_PBE Ti_pv 07Sep2000
   LULTRA =        F    use ultrasoft PP ?
   IUNSCR =        1    unscreen: 0-lin 1-nonlin 2-no
   RPACOR =    2.200    partial core radius
   POMASS =   47.880; ZVAL   =   10.000    mass and valenz
   RCORE  =    2.500    outmost cutoff radius
   RWIGS  =    2.500; RWIGS  =    1.323    wigner-seitz radius (au A)
   ENMAX  =  222.335; ENMIN  =  166.751 eV
   RCLOC  =    1.701    cutoff for local pot
   LCOR   =        T    correct aug charges
   LPAW   =        T    paw PP
   EAUG   =  482.848
   DEXC   =    0.000
   RMAX   =    2.564    core radius for proj-oper
   RAUG   =    1.300    factor for augmentation sphere
   RDEP   =    2.538    radius for radial grids
   RDEPT  =    1.952    core radius for aug-charge

   Atomic configuration
    8 entries
     n  l   j            E        occ.
     1  0  0.50     -4865.3608   2.0000
     2  0  0.50      -533.1368   2.0000
     2  1  1.50      -440.5031   6.0000
     3  0  0.50       -59.3186   2.0000
     3  1  1.50       -35.7012   6.0000
     3  2  2.50        -1.9157   3.0000
     4  0  0.50        -3.7291   1.0000
     4  3  2.50        -1.3606   0.0000
   Description
     l       E           TYP  RCUT    TYP  RCUT
     1    -35.7012140     23  2.300
     1     -1.3605826     23  2.300
     2     -1.9156996     23  2.500
     2     -0.4063033     23  2.500
     0     -3.7290856     23  2.500
     0     20.4087390     23  2.500
  local pseudopotential read in
  partial core-charges read in
  partial kinetic energy density read in
  atomic valenz-charges read in
  non local Contribution for L=           1  read in
    real space projection operators read in
  non local Contribution for L=           1  read in
    real space projection operators read in
  non local Contribution for L=           2  read in
    real space projection operators read in
  non local Contribution for L=           2  read in
    real space projection operators read in
  non local Contribution for L=           0  read in
    real space projection operators read in
  non local Contribution for L=           0  read in
    real space projection operators read in
    PAW grid and wavefunctions read in

   number of l-projection  operators is LMAX  =           6
   number of lm-projection operators is LMMAX =          18

 POTCAR:    PAW_PBE O 08Apr2002
   VRHFIN =O: s2p4
   LEXCH  = PE
   EATOM  =   432.3788 eV,   31.7789 Ry

   TITEL  = PAW_PBE O 08Apr2002
   LULTRA =        F    use ultrasoft PP ?
   IUNSCR =        1    unscreen: 0-lin 1-nonlin 2-no
   RPACOR =    1.200    partial core radius
   POMASS =   16.000; ZVAL   =    6.000    mass and valenz
   RCORE  =    1.520    outmost cutoff radius
   RWIGS  =    1.550; RWIGS  =    0.820    wigner-seitz radius (au A)
   ENMAX  =  400.000; ENMIN  =  300.000 eV
   ICORE  =        2    local potential
   LCOR   =        T    correct aug charges
   LPAW   =        T    paw PP
   EAUG   =  605.392
   DEXC   =    0.000
   RMAX   =    1.553    core radius for proj-oper
   RAUG   =    1.300    factor for augmentation sphere
   RDEP   =    1.550    radius for radial grids
   RDEPT  =    1.329    core radius for aug-charge

   Atomic configuration
    4 entries
     n  l   j            E        occ.
     1  0  0.50      -514.6923   2.0000
     2  0  0.50       -23.9615   2.0000
     2  1  0.50        -9.0305   4.0000
     3  2  1.50        -9.5241   0.0000
   Description
     l       E           TYP  RCUT    TYP  RCUT
     0    -23.9615318     23  1.200
     0     -9.5240782     23  1.200
     1     -9.0304911     23  1.520
     1      8.1634956     23  1.520
     2     -9.5240782      7  1.500
  local pseudopotential read in
  partial core-charges read in
  partial kinetic energy density read in
  kinetic energy density of atom read in
  atomic valenz-charges read in
  non local Contribution for L=           0  read in
    real space projection operators read in
  non local Contribution for L=           0  read in
    real space projection operators read in
  non local Contribution for L=           1  read in
    real space projection operators read in
  non local Contribution for L=           1  read in
    real space projection operators read in
    PAW grid and wavefunctions read in

   number of l-projection  operators is LMAX  =           4
   number of lm-projection operators is LMMAX =           8

 Optimization of the real space projectors (new method)

 maximal supplied QI-value         = 15.12
 optimisation between [QCUT,QGAM] = [ 10.13, 20.41] = [ 28.73,116.64] Ry
 Optimized for a Real-space Cutoff    1.51 Angstroem

   l    n(q)    QCUT    max X(q) W(low)/X(q) W(high)/X(q)  e(spline)
   1      9    10.129     4.216    0.12E-04    0.72E-04    0.60E-07
   1      9    10.129     5.422    0.84E-04    0.21E-03    0.15E-06
   2      8    10.129    72.084    0.33E-03    0.35E-04    0.17E-06
   2      8    10.129    65.965    0.33E-03    0.37E-04    0.17E-06
   0      9    10.129    41.531    0.17E-03    0.19E-03    0.81E-07
   0      9    10.129    16.290    0.12E-03    0.14E-03    0.64E-07
 Optimization of the real space projectors (new method)

 maximal supplied QI-value         = 24.76
 optimisation between [QCUT,QGAM] = [ 10.15, 20.30] = [ 28.85,115.39] Ry
 Optimized for a Real-space Cutoff    1.38 Angstroem

   l    n(q)    QCUT    max X(q) W(low)/X(q) W(high)/X(q)  e(spline)
   0      8    10.150    20.381    0.22E-03    0.32E-03    0.29E-06
   0      8    10.150    15.268    0.23E-03    0.35E-03    0.30E-06
   1      8    10.150     5.964    0.46E-03    0.53E-03    0.21E-06
   1      8    10.150     5.382    0.38E-03    0.45E-03    0.19E-06
  PAW_PBE Ti_pv 07Sep2000               :
 energy of atom  1       EATOM=-1042.5995
 kinetic energy error for atom=    0.0037 (will be added to EATOM!!)
  PAW_PBE O 08Apr2002                   :
 energy of atom  2       EATOM= -432.3788
 kinetic energy error for atom=    0.1156 (will be added to EATOM!!)


 POSCAR: Ti4 O8
  positions in cartesian coordinates
  No initial velocities read in
 exchange correlation table for  LEXCH =        8
   RHO(1)=    0.500       N(1)  =     2000
   RHO(2)=  100.500       N(2)  =     4000



--------------------------------------------------------------------------------------------------------


 ion  position               nearest neighbor table
   1  0.167  0.167  0.500-  56 1.94  55 1.94  40 1.94  37 1.94 100 2.00  46 2.00  31 3.06  28 3.06
                            11 3.06  10 3.06
   2  0.167  0.500  0.500-  56 1.94  41 1.94  38 1.94  57 1.94 101 2.00  47 2.00  11 3.06  32 3.06
                            29 3.06  12 3.06
   3  0.167  0.833  0.500-  57 1.94  42 1.94  39 1.94  55 1.94 102 2.00  48 2.00  12 3.06  33 3.06
                            30 3.06  10 3.06
   4  0.500  0.167  0.500-  40 1.94  59 1.94  58 1.94  43 1.94 103 2.00  49 2.00  31 3.06  14 3.06
                            13 3.06  34 3.06
   5  0.500  0.500  0.479- 104 1.80  41 1.91  44 1.91  59 1.99  60 1.99  50 2.20  32 2.91  35 2.91

   6  0.500  0.833  0.500-  60 1.94  42 1.94  58 1.94  45 1.94 105 2.00  51 2.00  15 3.06  33 3.06
                            13 3.06  36 3.06
   7  0.833  0.167  0.500-  43 1.94  62 1.94  61 1.94  37 1.94 106 2.00  52 2.00  34 3.06  17 3.06
                            16 3.06  28 3.06
   8  0.833  0.500  0.500-  44 1.94  62 1.94  63 1.94  38 1.94 107 2.00  53 2.00  35 3.06  17 3.06
                            29 3.06  18 3.06
   9  0.833  0.833  0.500-  63 1.94  45 1.94  61 1.94  39 1.94 108 2.00  54 2.00  36 3.06  18 3.06
                            30 3.06  16 3.06
  10  0.167  0.000  0.750-  67 1.94  64 1.94  46 1.94  48 1.94  73 2.00  55 2.00  22 3.06  19 3.06
                             1 3.06   3 3.06
  11  0.167  0.333  0.750-  47 1.94  46 1.94  68 1.94  65 1.94  74 2.00  56 2.00   2 3.06  23 3.06
                            20 3.06   1 3.06
  12  0.167  0.667  0.750-  48 1.94  69 1.94  66 1.94  47 1.94  75 2.00  57 2.00   3 3.06  24 3.06
                            21 3.06   2 3.06
  13  0.500  0.000  0.750-  67 1.94  49 1.94  51 1.94  70 1.94  76 2.00  58 2.00  22 3.06   4 3.06
                            25 3.06   6 3.06
  14  0.500  0.333  0.750-  50 1.94  68 1.94  49 1.94  71 1.94  77 2.00  59 2.00  23 3.06   4 3.06
                            26 3.06
  15  0.500  0.667  0.750-  51 1.94  69 1.94  50 1.94  72 1.94  78 2.00  60 2.00   6 3.06  24 3.06
                            27 3.06
  16  0.833  0.000  0.750-  70 1.94  52 1.94  64 1.94  54 1.94  79 2.00  61 2.00  25 3.06   7 3.06
                            19 3.06   9 3.06
  17  0.833  0.333  0.750-  71 1.94  53 1.94  52 1.94  65 1.94  80 2.00  62 2.00  26 3.06   8 3.06
                             7 3.06  20 3.06
  18  0.833  0.667  0.750-  54 1.94  72 1.94  66 1.94  53 1.94  81 2.00  63 2.00  27 3.06   9 3.06
                            21 3.06   8 3.06
  19  0.000  0.000  0.000-  73 1.94  91 1.94  79 1.94  93 1.94  82 2.00  64 2.00  10 3.06  28 3.06
                            16 3.06  30 3.06
  20  0.000  0.333  0.000-  92 1.94  74 1.94  91 1.94  80 1.94  83 2.00  65 2.00  29 3.06  11 3.06
                            28 3.06  17 3.06
  21  0.000  0.667  0.000-  93 1.94  75 1.94  81 1.94  92 1.94  84 2.00  66 2.00  30 3.06  12 3.06
                            18 3.06  29 3.06
  22  0.333  0.000  0.000-  76 1.94  73 1.94  94 1.94  96 1.94  85 2.00  67 2.00  13 3.06  10 3.06
                            31 3.06  33 3.06
  23  0.333  0.333  0.000-  77 1.94  95 1.94  74 1.94  94 1.94  86 2.00  68 2.00  14 3.06  32 3.06
                            11 3.06  31 3.06
  24  0.333  0.667  0.000-  96 1.94  78 1.94  75 1.94  95 1.94  87 2.00  69 2.00  33 3.06  15 3.06
                            12 3.06  32 3.06
  25  0.667  0.000  0.000-  79 1.94  97 1.94  76 1.94  99 1.94  88 2.00  70 2.00  16 3.06  34 3.06
                            13 3.06  36 3.06
  26  0.667  0.333  0.000-  80 1.94  98 1.94  97 1.94  77 1.94  89 2.00  71 2.00  17 3.06  35 3.06
                            34 3.06  14 3.06
  27  0.667  0.667  0.000-  81 1.94  99 1.94  78 1.94  98 1.94  90 2.00  72 2.00  18 3.06  36 3.06
                            15 3.06  35 3.06
  28  0.000  0.167  0.250-  83 1.94  82 1.94 100 1.94 106 1.94  37 2.00  91 2.00   1 3.06  20 3.06
                            19 3.06   7 3.06
  29  0.000  0.500  0.250-  83 1.94 101 1.94  84 1.94 107 1.94  38 2.00  92 2.00  20 3.06   2 3.06
                             8 3.06  21 3.06
  30  0.000  0.833  0.250-  84 1.94 102 1.94  82 1.94 108 1.94  39 2.00  93 2.00  21 3.06   3 3.06
                             9 3.06  19 3.06
  31  0.333  0.167  0.250- 103 1.94  86 1.94  85 1.94 100 1.94  40 2.00  94 2.00   4 3.06   1 3.06
                            23 3.06  22 3.06
  32  0.333  0.500  0.250-  86 1.94 104 1.94 101 1.94  87 1.94  41 2.00  95 2.00   5 2.91  23 3.06
                             2 3.06  24 3.06
  33  0.333  0.833  0.250-  87 1.94 105 1.94 102 1.94  85 1.94  42 2.00  96 2.00  24 3.06   6 3.06
                             3 3.06  22 3.06
  34  0.667  0.167  0.250- 106 1.94  89 1.94  88 1.94 103 1.94  43 2.00  97 2.00   7 3.06  26 3.06
                            25 3.06   4 3.06
  35  0.667  0.500  0.250- 107 1.94  89 1.94  90 1.94 104 1.94  44 2.00  98 2.00   5 2.91   8 3.06
                            26 3.06  27 3.06
  36  0.667  0.833  0.250-  90 1.94 108 1.94  88 1.94 105 1.94  45 2.00  99 2.00   9 3.06  27 3.06
                            25 3.06   6 3.06
  37  0.000  0.167  0.458-   1 1.94   7 1.94  28 2.00
  38  0.000  0.500  0.458-   2 1.94   8 1.94  29 2.00
  39  0.000  0.833  0.458-   3 1.94   9 1.94  30 2.00
  40  0.333  0.167  0.458-   4 1.94   1 1.94  31 2.00
  41  0.333  0.500  0.458-   5 1.91   2 1.94  32 2.00
  42  0.333  0.833  0.458-   6 1.94   3 1.94  33 2.00
  43  0.667  0.167  0.458-   7 1.94   4 1.94  34 2.00
  44  0.667  0.500  0.458-   5 1.91   8 1.94  35 2.00
  45  0.667  0.833  0.458-   9 1.94   6 1.94  36 2.00
  46  0.167  0.167  0.708-  11 1.94  10 1.94   1 2.00
  47  0.167  0.500  0.708-  11 1.94  12 1.94   2 2.00
  48  0.167  0.833  0.708-  12 1.94  10 1.94   3 2.00
  49  0.500  0.167  0.708-  14 1.94  13 1.94   4 2.00
  50  0.500  0.500  0.708-  14 1.94  15 1.94   5 2.20
  51  0.500  0.833  0.708-  15 1.94  13 1.94   6 2.00
  52  0.833  0.167  0.708-  17 1.94  16 1.94   7 2.00
  53  0.833  0.500  0.708-  17 1.94  18 1.94   8 2.00
  54  0.833  0.833  0.708-  18 1.94  16 1.94   9 2.00
  55  0.167  0.000  0.542-   1 1.94   3 1.94  10 2.00
  56  0.167  0.333  0.542-   2 1.94   1 1.94  11 2.00
  57  0.167  0.667  0.542-   3 1.94   2 1.94  12 2.00
  58  0.500  0.000  0.542-   4 1.94   6 1.94  13 2.00
  59  0.500  0.333  0.542-   4 1.94   5 1.99  14 2.00
  60  0.500  0.667  0.542-   6 1.94   5 1.99  15 2.00
  61  0.833  0.000  0.542-   7 1.94   9 1.94  16 2.00
  62  0.833  0.333  0.542-   8 1.94   7 1.94  17 2.00
  63  0.833  0.667  0.542-   9 1.94   8 1.94  18 2.00
  64  0.000  0.000  0.792-  10 1.94  16 1.94  19 2.00
  65  0.000  0.333  0.792-  11 1.94  17 1.94  20 2.00
  66  0.000  0.667  0.792-  12 1.94  18 1.94  21 2.00
  67  0.333  0.000  0.792-  13 1.94  10 1.94  22 2.00
  68  0.333  0.333  0.792-  14 1.94  11 1.94  23 2.00
  69  0.333  0.667  0.792-  15 1.94  12 1.94  24 2.00
  70  0.667  0.000  0.792-  16 1.94  13 1.94  25 2.00
  71  0.667  0.333  0.792-  17 1.94  14 1.94  26 2.00
  72  0.667  0.667  0.792-  18 1.94  15 1.94  27 2.00
  73  0.167  0.000  0.958-  22 1.94  19 1.94  10 2.00
  74  0.167  0.333  0.958-  23 1.94  20 1.94  11 2.00
  75  0.167  0.667  0.958-  24 1.94  21 1.94  12 2.00
  76  0.500  0.000  0.958-  22 1.94  25 1.94  13 2.00
  77  0.500  0.333  0.958-  23 1.94  26 1.94  14 2.00
  78  0.500  0.667  0.958-  24 1.94  27 1.94  15 2.00
  79  0.833  0.000  0.958-  25 1.94  19 1.94  16 2.00
  80  0.833  0.333  0.958-  26 1.94  20 1.94  17 2.00
  81  0.833  0.667  0.958-  27 1.94  21 1.94  18 2.00
  82  0.000  0.000  0.208-  28 1.94  30 1.94  19 2.00
  83  0.000  0.333  0.208-  29 1.94  28 1.94  20 2.00
  84  0.000  0.667  0.208-  30 1.94  29 1.94  21 2.00
  85  0.333  0.000  0.208-  31 1.94  33 1.94  22 2.00
  86  0.333  0.333  0.208-  32 1.94  31 1.94  23 2.00
  87  0.333  0.667  0.208-  33 1.94  32 1.94  24 2.00
  88  0.667  0.000  0.208-  34 1.94  36 1.94  25 2.00
  89  0.667  0.333  0.208-  35 1.94  34 1.94  26 2.00
  90  0.667  0.667  0.208-  36 1.94  35 1.94  27 2.00
  91  0.000  0.167  0.042-  20 1.94  19 1.94  28 2.00
  92  0.000  0.500  0.042-  20 1.94  21 1.94  29 2.00
  93  0.000  0.833  0.042-  21 1.94  19 1.94  30 2.00
  94  0.333  0.167  0.042-  23 1.94  22 1.94  31 2.00
  95  0.333  0.500  0.042-  23 1.94  24 1.94  32 2.00
  96  0.333  0.833  0.042-  24 1.94  22 1.94  33 2.00
  97  0.667  0.167  0.042-  26 1.94  25 1.94  34 2.00
  98  0.667  0.500  0.042-  26 1.94  27 1.94  35 2.00
  99  0.667  0.833  0.042-  27 1.94  25 1.94  36 2.00
 100  0.167  0.167  0.292-  31 1.94  28 1.94   1 2.00
 101  0.167  0.500  0.292-  32 1.94  29 1.94   2 2.00
 102  0.167  0.833  0.292-  33 1.94  30 1.94   3 2.00
 103  0.500  0.167  0.292-  31 1.94  34 1.94   4 2.00
 104  0.500  0.500  0.292-   5 1.80  32 1.94  35 1.94
 105  0.500  0.833  0.292-  33 1.94  36 1.94   6 2.00
 106  0.833  0.167  0.292-  34 1.94  28 1.94   7 2.00
 107  0.833  0.500  0.292-  35 1.94  29 1.94   8 2.00
 108  0.833  0.833  0.292-  36 1.94  30 1.94   9 2.00


IMPORTANT INFORMATION: All symmetrisations will be switched off!
NOSYMM: (Re-)initialisation of all symmetry stuff for point group C_1.


----------------------------------------------------------------------------------------

                                     Primitive cell

  volume of cell :    1243.1447

  direct lattice vectors                    reciprocal lattice vectors
    11.376843452  0.000000000  0.000000000     0.087897843  0.000000000  0.000000000
     0.000000000 11.376843452  0.000000000     0.000000000  0.087897843  0.000000000
     0.000000000  0.000000000  9.604574204     0.000000000  0.000000000  0.104117057

  length of vectors
    11.376843452 11.376843452  9.604574204     0.087897843  0.087897843  0.104117057

  position of ions in fractional coordinates (direct lattice)
     0.166666672  0.166666672  0.500000000
     0.166666672  0.500000000  0.500000000
     0.166666672  0.833333313  0.500000000
     0.500000000  0.166666672  0.500000000
     0.500000000  0.500000000  0.479176589
     0.500000000  0.833333313  0.500000000
     0.833333313  0.166666672  0.500000000
     0.833333313  0.500000000  0.500000000
     0.833333313  0.833333313  0.500000000
     0.166666672  0.000000000  0.750000000
     0.166666672  0.333333343  0.750000000
     0.166666672  0.666666687  0.750000000
     0.500000000  0.000000000  0.750000000
     0.500000000  0.333333343  0.750000000
     0.500000000  0.666666687  0.750000000
     0.833333313  0.000000000  0.750000000
     0.833333313  0.333333343  0.750000000
     0.833333313  0.666666687  0.750000000
     0.000000000  0.000000000  0.000000000
     0.000000000  0.333333343  0.000000000
     0.000000000  0.666666687  0.000000000
     0.333333343  0.000000000  0.000000000
     0.333333343  0.333333343  0.000000000
     0.333333343  0.666666687  0.000000000
     0.666666687  0.000000000  0.000000000
     0.666666687  0.333333343  0.000000000
     0.666666687  0.666666687  0.000000000
     0.000000000  0.166666672  0.250000000
     0.000000000  0.500000000  0.250000000
     0.000000000  0.833333313  0.250000000
     0.333333343  0.166666672  0.250000000
     0.333333343  0.500000000  0.250000000
     0.333333343  0.833333313  0.250000000
     0.666666687  0.166666672  0.250000000
     0.666666687  0.500000000  0.250000000
     0.666666687  0.833333313  0.250000000
     0.000000000  0.166666672  0.457898587
     0.000000000  0.500000000  0.457898587
     0.000000000  0.833333313  0.457898587
     0.333333343  0.166666672  0.457898587
     0.333333343  0.500000000  0.457898587
     0.333333343  0.833333313  0.457898587
     0.666666687  0.166666672  0.457898587
     0.666666687  0.500000000  0.457898587
     0.666666687  0.833333313  0.457898587
     0.166666672  0.166666672  0.707898617
     0.166666672  0.500000000  0.707898617
     0.166666672  0.833333313  0.707898617
     0.500000000  0.166666672  0.707898617
     0.500000000  0.500000000  0.707898617
     0.500000000  0.833333313  0.707898617
     0.833333313  0.166666672  0.707898617
     0.833333313  0.500000000  0.707898617
     0.833333313  0.833333313  0.707898617
     0.166666672  0.000000000  0.542101383
     0.166666672  0.333333343  0.542101383
     0.166666672  0.666666687  0.542101383
     0.500000000  0.000000000  0.542101383
     0.500000000  0.333333343  0.542101383
     0.500000000  0.666666687  0.542101383
     0.833333313  0.000000000  0.542101383
     0.833333313  0.333333343  0.542101383
     0.833333313  0.666666687  0.542101383
     0.000000000  0.000000000  0.792101383
     0.000000000  0.333333343  0.792101383
     0.000000000  0.666666687  0.792101383
     0.333333343  0.000000000  0.792101383
     0.333333343  0.333333343  0.792101383
     0.333333343  0.666666687  0.792101383
     0.666666687  0.000000000  0.792101383
     0.666666687  0.333333343  0.792101383
     0.666666687  0.666666687  0.792101383
     0.166666672  0.000000000  0.957898617
     0.166666672  0.333333343  0.957898617
     0.166666672  0.666666687  0.957898617
     0.500000000  0.000000000  0.957898617
     0.500000000  0.333333343  0.957898617
     0.500000000  0.666666687  0.957898617
     0.833333313  0.000000000  0.957898617
     0.833333313  0.333333343  0.957898617
     0.833333313  0.666666687  0.957898617
     0.000000000  0.000000000  0.207898602
     0.000000000  0.333333343  0.207898602
     0.000000000  0.666666687  0.207898602
     0.333333343  0.000000000  0.207898602
     0.333333343  0.333333343  0.207898602
     0.333333343  0.666666687  0.207898602
     0.666666687  0.000000000  0.207898602
     0.666666687  0.333333343  0.207898602
     0.666666687  0.666666687  0.207898602
     0.000000000  0.166666672  0.042101406
     0.000000000  0.500000000  0.042101406
     0.000000000  0.833333313  0.042101406
     0.333333343  0.166666672  0.042101406
     0.333333343  0.500000000  0.042101406
     0.333333343  0.833333313  0.042101406
     0.666666687  0.166666672  0.042101406
     0.666666687  0.500000000  0.042101406
     0.666666687  0.833333313  0.042101406
     0.166666672  0.166666672  0.292101413
     0.166666672  0.500000000  0.292101413
     0.166666672  0.833333313  0.292101413
     0.500000000  0.166666672  0.292101413
     0.500000000  0.500000000  0.292101413
     0.500000000  0.833333313  0.292101413
     0.833333313  0.166666672  0.292101413
     0.833333313  0.500000000  0.292101413
     0.833333313  0.833333313  0.292101413

  ion indices of the primitive-cell ions
   primitive index   ion index
                 1           1
                 2           2
                 3           3
                 4           4
                 5           5
                 6           6
                 7           7
                 8           8
                 9           9
                10          10
                11          11
                12          12
                13          13
                14          14
                15          15
                16          16
                17          17
                18          18
                19          19
                20          20
                21          21
                22          22
                23          23
                24          24
                25          25
                26          26
                27          27
                28          28
                29          29
                30          30
                31          31
                32          32
                33          33
                34          34
                35          35
                36          36
                37          37
                38          38
                39          39
                40          40
                41          41
                42          42
                43          43
                44          44
                45          45
                46          46
                47          47
                48          48
                49          49
                50          50
                51          51
                52          52
                53          53
                54          54
                55          55
                56          56
                57          57
                58          58
                59          59
                60          60
                61          61
                62          62
                63          63
                64          64
                65          65
                66          66
                67          67
                68          68
                69          69
                70          70
                71          71
                72          72
                73          73
                74          74
                75          75
                76          76
                77          77
                78          78
                79          79
                80          80
                81          81
                82          82
                83          83
                84          84
                85          85
                86          86
                87          87
                88          88
                89          89
                90          90
                91          91
                92          92
                93          93
                94          94
                95          95
                96          96
                97          97
                98          98
                99          99
               100         100
               101         101
               102         102
               103         103
               104         104
               105         105
               106         106
               107         107
               108         108

----------------------------------------------------------------------------------------



 KPOINTS: K-Points

Automatic generation of k-mesh.
 Grid dimensions read from file:
 generate k-points for:    2    2    2

 Generating k-lattice:

  Cartesian coordinates                     Fractional coordinates (reciprocal lattice)
     0.043948922  0.000000000  0.000000000     0.500000000  0.000000000  0.000000000
     0.000000000  0.043948922  0.000000000     0.000000000  0.500000000  0.000000000
     0.000000000  0.000000000  0.052058529     0.000000000  0.000000000  0.500000000

  Length of vectors
     0.043948922  0.043948922  0.052058529

  Shift w.r.t. Gamma in fractional coordinates (k-lattice)
     0.500000000  0.500000000  0.500000000


 Subroutine IBZKPT returns following result:
 ===========================================

 Found      4 irreducible k-points:

 Following reciprocal coordinates:
            Coordinates               Weight
  0.250000  0.250000  0.250000      2.000000
 -0.250000  0.250000  0.250000      2.000000
 -0.250000 -0.250000  0.250000      2.000000
  0.250000 -0.250000  0.250000      2.000000

 Following cartesian coordinates:
            Coordinates               Weight
  0.021974  0.021974  0.026029      2.000000
 -0.021974  0.021974  0.026029      2.000000
 -0.021974 -0.021974  0.026029      2.000000
  0.021974 -0.021974  0.026029      2.000000


 Subroutine IBZKPT_HF returns following result:
 ==============================================

 Found      8 k-points in 1st BZ
 the following      8 k-points will be used (e.g. in the exchange kernel)
 Following reciprocal coordinates:   # in IRBZ
  0.250000  0.250000  0.250000    0.12500000   1 t-inv F
 -0.250000  0.250000  0.250000    0.12500000   2 t-inv F
 -0.250000 -0.250000  0.250000    0.12500000   3 t-inv F
  0.250000 -0.250000  0.250000    0.12500000   4 t-inv F
 -0.250000 -0.250000 -0.250000    0.12500000   1 t-inv T
  0.250000 -0.250000 -0.250000    0.12500000   2 t-inv T
  0.250000  0.250000 -0.250000    0.12500000   3 t-inv T
 -0.250000  0.250000 -0.250000    0.12500000   4 t-inv T


--------------------------------------------------------------------------------------------------------




 Dimension of arrays:
   k-points           NKPTS =      4   k-points in BZ     NKDIM =      4   number of bands    NBANDS=    476
   number of dos      NEDOS =    301   number of ions     NIONS =    108
   non local maximal  LDIM  =      6   non local SUM 2l+1 LMDIM =     18
   total plane-waves  NPLWV = 150528
   max r-space proj   IRMAX =   1791   max aug-charges    IRDMAX=   4900
   dimension x,y,z NGX =    56 NGY =   56 NGZ =   48
   dimension x,y,z NGXF=   112 NGYF=  112 NGZF=   96
   support grid    NGXF=   112 NGYF=  112 NGZF=   96
   ions per type =              36  72
   NGX,Y,Z   is equivalent  to a cutoff of   8.18,  8.18,  8.31 a.u.
   NGXF,Y,Z  is equivalent  to a cutoff of  16.37, 16.37, 16.62 a.u.

 SYSTEM =  unknown system
 POSCAR =  Ti4 O8

 Startparameter for this run:
   NWRITE =      2    write-flag & timer
   PREC   = normal    normal or accurate (medium, high low for compatibility)
   ISTART =      0    job   : 0-new  1-cont  2-samecut
   ICHARG =      2    charge: 1-file 2-atom 10-const
   ISPIN  =      1    spin polarized calculation?
   LNONCOLLINEAR =      F non collinear calculations
   LSORBIT =      F    spin-orbit coupling
   INIWAV =      1    electr: 0-lowe 1-rand  2-diag
   LASPH  =      F    aspherical Exc in radial PAW
 Electronic Relaxation 1
   ENCUT  =  400.0 eV  29.40 Ry    5.42 a.u.  18.55 18.55 15.66*2*pi/ulx,y,z
   ENINI  =  400.0     initial cutoff
   ENAUG  =  605.4 eV  augmentation charge cutoff
   NELM   =     80;   NELMIN=  4; NELMDL= -5     # of ELM steps
   EDIFF  = 0.1E-06   stopping-criterion for ELM
   LREAL  =      T    real-space projection
   NLSPLINE    = F    spline interpolate recip. space projectors
   LCOMPAT=      F    compatible to vasp.4.4
   GGA_COMPAT  = T    GGA compatible to vasp.4.4-vasp.4.6
   LMAXPAW     = -100 max onsite density
   LMAXMIX     =    2 max onsite mixed and CHGCAR
   VOSKOWN=      0    Vosko Wilk Nusair interpolation
   ROPT   =   -0.00050  -0.00050
 Ionic relaxation
   EDIFFG = 0.1E-05   stopping-criterion for IOM
   NSW    =      0    number of steps for IOM
   NBLOCK =      1;   KBLOCK =      1    inner block; outer block
   IBRION =     -1    ionic relax: 0-MD 1-quasi-New 2-CG
   NFREE  =      0    steps in history (QN), initial steepest desc. (CG)
   ISIF   =      2    stress and relaxation
   IWAVPR =     10    prediction:  0-non 1-charg 2-wave 3-comb
   ISYM   =      0    0-nonsym 1-usesym 2-fastsym
   LCORR  =      T    Harris-Foulkes like correction to forces

   POTIM  = 0.5000    time-step for ionic-motion
   TEIN   =    0.0    initial temperature
   TEBEG  =    0.0;   TEEND  =   0.0 temperature during run
   SMASS  =  -3.00    Nose mass-parameter (am)
   estimated Nose-frequenzy (Omega)   =  0.10E-29 period in steps = 0.13E+47 mass=  -0.296E-26a.u.
   SCALEE = 1.0000    scale energy and forces
   NPACO  =    256;   APACO  = 10.0  distance and # of slots for P.C.
   PSTRESS=    0.0 pullay stress

  Mass of Ions in am
   POMASS =  47.88 16.00
  Ionic Valenz
   ZVAL   =  10.00  6.00
  Atomic Wigner-Seitz radii
   RWIGS  =  -1.00 -1.00
  virtual crystal weights
   VCA    =   1.00  1.00
   NELECT =     792.0000    total number of electrons
   NUPDOWN=      -1.0000    fix difference up-down

 DOS related values:
   EMIN   =  10.00;   EMAX   =-10.00  energy-range for DOS
   EFERMI =   0.00
   ISMEAR =     0;   SIGMA  =   0.10  broadening in eV -4-tet -1-fermi 0-gaus

 Electronic relaxation 2 (details)
   IALGO  =     38    algorithm
   LDIAG  =      T    sub-space diagonalisation (order eigenvalues)
   LSUBROT=      F    optimize rotation matrix (better conditioning)
   TURBO    =      0    0=normal 1=particle mesh
   IRESTART =      0    0=no restart 2=restart with 2 vectors
   NREBOOT  =      0    no. of reboots
   NMIN     =      0    reboot dimension
   EREF     =   0.00    reference energy to select bands
   IMIX   =      4    mixing-type and parameters
     AMIX     =   0.40;   BMIX     =  1.00
     AMIX_MAG =   1.60;   BMIX_MAG =  1.00
     AMIN     =   0.10
     WC   =   100.;   INIMIX=   1;  MIXPRE=   1;  MAXMIX= -45

 Intra band minimization:
   WEIMIN = 0.0000     energy-eigenvalue tresh-hold
   EBREAK =  0.53E-10  absolut break condition
   DEPER  =   0.30     relativ break condition

   TIME   =   0.40     timestep for ELM

  volume/ion in A,a.u.               =      11.51        77.68
  Fermi-wavevector in a.u.,A,eV,Ry     =   1.408670  2.662001 26.998745  1.984352
  Thomas-Fermi vector in A             =   2.530804

 Write flags
   LWAVE        =      F    write WAVECAR
   LDOWNSAMPLE  =      F    k-point downsampling of WAVECAR
   LCHARG       =      F    write CHGCAR
   LVTOT        =      F    write LOCPOT, total local potential
   LVHAR        =      F    write LOCPOT, Hartree potential only
   LELF         =      F    write electronic localiz. function (ELF)
   LORBIT       =      0    0 simple, 1 ext, 2 COOP (PROOUT), +10 PAW based schemes


 Dipole corrections
   LMONO  =      F    monopole corrections only (constant potential shift)
   LDIPOL =      F    correct potential (dipole corrections)
   IDIPOL =      0    1-x, 2-y, 3-z, 4-all directions
   EPSILON=  1.0000000 bulk dielectric constant

 Exchange correlation treatment:
   GGA     =    --    GGA type
   LEXCH   =     8    internal setting for exchange type
   LIBXC   =     F    Libxc
   VOSKOWN =     0    Vosko Wilk Nusair interpolation
   LHFCALC =     F    Hartree Fock is set to
   LHFONE  =     F    Hartree Fock one center treatment
   AEXX    =    0.0000 exact exchange contribution

 Linear response parameters
   LEPSILON=     T    determine dielectric tensor
   LRPA    =     F    only Hartree local field effects (RPA)
   LNABLA  =     F    use nabla operator in PAW spheres
   LVEL    =     F    velocity operator in full k-point grid
   CSHIFT  =0.1000    complex shift for real part using Kramers Kronig
   OMEGAMAX=  -1.0    maximum frequency
   DEG_THRESHOLD= 0.2000000E-02 threshold for treating states as degnerate
   RTIME   =   -0.100 relaxation time in fs
  (WPLASMAI=    0.000 imaginary part of plasma frequency in eV, 0.658/RTIME)
   DFIELD  = 0.0000000 0.0000000 0.0000000 field for delta impulse in time

  Optional k-point grid parameters
   LKPOINTS_OPT  =     F    use optional k-point grid
   KPOINTS_OPT_MODE=     1    mode for optional k-point grid

 Orbital magnetization related:
   ORBITALMAG=     F  switch on orbital magnetization
   LCHIMAG   =     F  perturbation theory with respect to B field
   DQ        =  0.001000  dq finite difference perturbation B field
   LLRAUG    =     F  two centre corrections for induced B field

 PEAD related settings:
   LPEAD      =     T    switch on PEAD
   IPEAD      =     4    finite difference order for dpsi/dk
   LCALCPOL   =     F    calculate macroscopic polarization
   LCALCEPS   =     F    calculate dielectric tensor
   EFIELD_PEAD=    0.0000    0.0000    0.0000
   SKIP_EDOTP =     F
   LRPA       =     F
   SKIP_SCF   =     F


--------------------------------------------------------------------------------------------------------


 Static calculation
 charge density and potential will be updated during run
 non-spin polarized calculation
 Variant of blocked Davidson
 Davidson routine will perform the subspace rotation
 perform sub-space diagonalisation
    after iterative eigenvector-optimisation
 modified Broyden-mixing scheme, WC =      100.0
 initial mixing is a Kerker type mixing with AMIX =  0.4000 and BMIX =      1.0000
 Hartree-type preconditioning will be used
 using additional bands           80
 real space projection scheme for non local part
 use partial core corrections
 calculate Harris-corrections to forces
   (improved forces if not selfconsistent)
 use gradient corrections
 use of overlap-Matrix (Vanderbilt PP)
 Gauss-broadening in eV      SIGMA  =   0.10


--------------------------------------------------------------------------------------------------------


  energy-cutoff  :      400.00
  volume of cell :     1243.14
      direct lattice vectors                 reciprocal lattice vectors
    11.376843452  0.000000000  0.000000000     0.087897843  0.000000000  0.000000000
     0.000000000 11.376843452  0.000000000     0.000000000  0.087897843  0.000000000
     0.000000000  0.000000000  9.604574204     0.000000000  0.000000000  0.104117057

  length of vectors
    11.376843452 11.376843452  9.604574204     0.087897843  0.087897843  0.104117057



 k-points in units of 2pi/SCALE and weight: K-Points
   0.02197446  0.02197446  0.02602926       0.250
  -0.02197446  0.02197446  0.02602926       0.250
  -0.02197446 -0.02197446  0.02602926       0.250
   0.02197446 -0.02197446  0.02602926       0.250

 k-points in reciprocal lattice and weights: K-Points
   0.25000000  0.25000000  0.25000000       0.250
  -0.25000000  0.25000000  0.25000000       0.250
  -0.25000000 -0.25000000  0.25000000       0.250
   0.25000000 -0.25000000  0.25000000       0.250

 position of ions in fractional coordinates (direct lattice)
   0.16666667  0.16666667  0.50000000
   0.16666667  0.50000000  0.50000000
   0.16666667  0.83333331  0.50000000
   0.50000000  0.16666667  0.50000000
   0.50000000  0.50000000  0.47917659
   0.50000000  0.83333331  0.50000000
   0.83333331  0.16666667  0.50000000
   0.83333331  0.50000000  0.50000000
   0.83333331  0.83333331  0.50000000
   0.16666667  0.00000000  0.75000000
   0.16666667  0.33333334  0.75000000
   0.16666667  0.66666669  0.75000000
   0.50000000  0.00000000  0.75000000
   0.50000000  0.33333334  0.75000000
   0.50000000  0.66666669  0.75000000
   0.83333331  0.00000000  0.75000000
   0.83333331  0.33333334  0.75000000
   0.83333331  0.66666669  0.75000000
   0.00000000  0.00000000  0.00000000
   0.00000000  0.33333334  0.00000000
   0.00000000  0.66666669  0.00000000
   0.33333334  0.00000000  0.00000000
   0.33333334  0.33333334  0.00000000
   0.33333334  0.66666669  0.00000000
   0.66666669  0.00000000  0.00000000
   0.66666669  0.33333334  0.00000000
   0.66666669  0.66666669  0.00000000
   0.00000000  0.16666667  0.25000000
   0.00000000  0.50000000  0.25000000
   0.00000000  0.83333331  0.25000000
   0.33333334  0.16666667  0.25000000
   0.33333334  0.50000000  0.25000000
   0.33333334  0.83333331  0.25000000
   0.66666669  0.16666667  0.25000000
   0.66666669  0.50000000  0.25000000
   0.66666669  0.83333331  0.25000000
   0.00000000  0.16666667  0.45789859
   0.00000000  0.50000000  0.45789859
   0.00000000  0.83333331  0.45789859
   0.33333334  0.16666667  0.45789859
   0.33333334  0.50000000  0.45789859
   0.33333334  0.83333331  0.45789859
   0.66666669  0.16666667  0.45789859
   0.66666669  0.50000000  0.45789859
   0.66666669  0.83333331  0.45789859
   0.16666667  0.16666667  0.70789862
   0.16666667  0.50000000  0.70789862
   0.16666667  0.83333331  0.70789862
   0.50000000  0.16666667  0.70789862
   0.50000000  0.50000000  0.70789862
   0.50000000  0.83333331  0.70789862
   0.83333331  0.16666667  0.70789862
   0.83333331  0.50000000  0.70789862
   0.83333331  0.83333331  0.70789862
   0.16666667  0.00000000  0.54210138
   0.16666667  0.33333334  0.54210138
   0.16666667  0.66666669  0.54210138
   0.50000000  0.00000000  0.54210138
   0.50000000  0.33333334  0.54210138
   0.50000000  0.66666669  0.54210138
   0.83333331  0.00000000  0.54210138
   0.83333331  0.33333334  0.54210138
   0.83333331  0.66666669  0.54210138
   0.00000000  0.00000000  0.79210138
   0.00000000  0.33333334  0.79210138
   0.00000000  0.66666669  0.79210138
   0.33333334  0.00000000  0.79210138
   0.33333334  0.33333334  0.79210138
   0.33333334  0.66666669  0.79210138
   0.66666669  0.00000000  0.79210138
   0.66666669  0.33333334  0.79210138
   0.66666669  0.66666669  0.79210138
   0.16666667  0.00000000  0.95789862
   0.16666667  0.33333334  0.95789862
   0.16666667  0.66666669  0.95789862
   0.50000000  0.00000000  0.95789862
   0.50000000  0.33333334  0.95789862
   0.50000000  0.66666669  0.95789862
   0.83333331  0.00000000  0.95789862
   0.83333331  0.33333334  0.95789862
   0.83333331  0.66666669  0.95789862
   0.00000000  0.00000000  0.20789860
   0.00000000  0.33333334  0.20789860
   0.00000000  0.66666669  0.20789860
   0.33333334  0.00000000  0.20789860
   0.33333334  0.33333334  0.20789860
   0.33333334  0.66666669  0.20789860
   0.66666669  0.00000000  0.20789860
   0.66666669  0.33333334  0.20789860
   0.66666669  0.66666669  0.20789860
   0.00000000  0.16666667  0.04210141
   0.00000000  0.50000000  0.04210141
   0.00000000  0.83333331  0.04210141
   0.33333334  0.16666667  0.04210141
   0.33333334  0.50000000  0.04210141
   0.33333334  0.83333331  0.04210141
   0.66666669  0.16666667  0.04210141
   0.66666669  0.50000000  0.04210141
   0.66666669  0.83333331  0.04210141
   0.16666667  0.16666667  0.29210141
   0.16666667  0.50000000  0.29210141
   0.16666667  0.83333331  0.29210141
   0.50000000  0.16666667  0.29210141
   0.50000000  0.50000000  0.29210141
   0.50000000  0.83333331  0.29210141
   0.83333331  0.16666667  0.29210141
   0.83333331  0.50000000  0.29210141
   0.83333331  0.83333331  0.29210141

 position of ions in cartesian coordinates  (Angst):
   1.89614063  1.89614063  4.80228710
   1.89614063  5.68842173  4.80228710
   1.89614063  9.48070265  4.80228710
   5.68842173  1.89614063  4.80228710
   5.68842173  5.68842173  4.60228710
   5.68842173  9.48070265  4.80228710
   9.48070265  1.89614063  4.80228710
   9.48070265  5.68842173  4.80228710
   9.48070265  9.48070265  4.80228710
   1.89614063  0.00000000  7.20343065
   1.89614063  3.79228126  7.20343065
   1.89614063  7.58456253  7.20343065
   5.68842173  0.00000000  7.20343065
   5.68842173  3.79228126  7.20343065
   5.68842173  7.58456253  7.20343065
   9.48070265  0.00000000  7.20343065
   9.48070265  3.79228126  7.20343065
   9.48070265  7.58456253  7.20343065
   0.00000000  0.00000000  0.00000000
   0.00000000  3.79228126  0.00000000
   0.00000000  7.58456253  0.00000000
   3.79228126  0.00000000  0.00000000
   3.79228126  3.79228126  0.00000000
   3.79228126  7.58456253  0.00000000
   7.58456253  0.00000000  0.00000000
   7.58456253  3.79228126  0.00000000
   7.58456253  7.58456253  0.00000000
   0.00000000  1.89614063  2.40114355
   0.00000000  5.68842173  2.40114355
   0.00000000  9.48070265  2.40114355
   3.79228126  1.89614063  2.40114355
   3.79228126  5.68842173  2.40114355
   3.79228126  9.48070265  2.40114355
   7.58456253  1.89614063  2.40114355
   7.58456253  5.68842173  2.40114355
   7.58456253  9.48070265  2.40114355
   0.00000000  1.89614063  4.39792096
   0.00000000  5.68842173  4.39792096
   0.00000000  9.48070265  4.39792096
   3.79228126  1.89614063  4.39792096
   3.79228126  5.68842173  4.39792096
   3.79228126  9.48070265  4.39792096
   7.58456253  1.89614063  4.39792096
   7.58456253  5.68842173  4.39792096
   7.58456253  9.48070265  4.39792096
   1.89614063  1.89614063  6.79906479
   1.89614063  5.68842173  6.79906479
   1.89614063  9.48070265  6.79906479
   5.68842173  1.89614063  6.79906479
   5.68842173  5.68842173  6.79906479
   5.68842173  9.48070265  6.79906479
   9.48070265  1.89614063  6.79906479
   9.48070265  5.68842173  6.79906479
   9.48070265  9.48070265  6.79906479
   1.89614063  0.00000000  5.20665296
   1.89614063  3.79228126  5.20665296
   1.89614063  7.58456253  5.20665296
   5.68842173  0.00000000  5.20665296
   5.68842173  3.79228126  5.20665296
   5.68842173  7.58456253  5.20665296
   9.48070265  0.00000000  5.20665296
   9.48070265  3.79228126  5.20665296
   9.48070265  7.58456253  5.20665296
   0.00000000  0.00000000  7.60779651
   0.00000000  3.79228126  7.60779651
   0.00000000  7.58456253  7.60779651
   3.79228126  0.00000000  7.60779651
   3.79228126  3.79228126  7.60779651
   3.79228126  7.58456253  7.60779651
   7.58456253  0.00000000  7.60779651
   7.58456253  3.79228126  7.60779651
   7.58456253  7.58456253  7.60779651
   1.89614063  0.00000000  9.20020834
   1.89614063  3.79228126  9.20020834
   1.89614063  7.58456253  9.20020834
   5.68842173  0.00000000  9.20020834
   5.68842173  3.79228126  9.20020834
   5.68842173  7.58456253  9.20020834
   9.48070265  0.00000000  9.20020834
   9.48070265  3.79228126  9.20020834
   9.48070265  7.58456253  9.20020834
   0.00000000  0.00000000  1.99677755
   0.00000000  3.79228126  1.99677755
   0.00000000  7.58456253  1.99677755
   3.79228126  0.00000000  1.99677755
   3.79228126  3.79228126  1.99677755
   3.79228126  7.58456253  1.99677755
   7.58456253  0.00000000  1.99677755
   7.58456253  3.79228126  1.99677755
   7.58456253  7.58456253  1.99677755
   0.00000000  1.89614063  0.40436607
   0.00000000  5.68842173  0.40436607
   0.00000000  9.48070265  0.40436607
   3.79228126  1.89614063  0.40436607
   3.79228126  5.68842173  0.40436607
   3.79228126  9.48070265  0.40436607
   7.58456253  1.89614063  0.40436607
   7.58456253  5.68842173  0.40436607
   7.58456253  9.48070265  0.40436607
   1.89614063  1.89614063  2.80550970
   1.89614063  5.68842173  2.80550970
   1.89614063  9.48070265  2.80550970
   5.68842173  1.89614063  2.80550970
   5.68842173  5.68842173  2.80550970
   5.68842173  9.48070265  2.80550970
   9.48070265  1.89614063  2.80550970
   9.48070265  5.68842173  2.80550970
   9.48070265  9.48070265  2.80550970



--------------------------------------------------------------------------------------------------------


 k-point   1 :   0.2500 0.2500 0.2500  plane waves:   22590
 k-point   2 :  -0.2500 0.2500 0.2500  plane waves:   22590
 k-point   3 :  -0.2500-0.2500 0.2500  plane waves:   22590
 k-point   4 :   0.2500-0.2500 0.2500  plane waves:   22590

 maximum and minimum number of plane-waves per node :     22590    22590

 maximum number of plane-waves:     22590
 maximum index in each direction:
   IXMAX=   18   IYMAX=   18   IZMAX=   15
   IXMIN=  -18   IYMIN=  -18   IZMIN=  -15


 serial   3D FFT for wavefunctions
 parallel 3D FFT for charge:
    minimum data exchange during FFTs selected (reduces bandwidth)


 total amount of memory used by VASP MPI-rank0   266725. kBytes
=======================================================================

   base      :      30000. kBytes
   nonlr-proj:      19556. kBytes
   fftplans  :      10927. kBytes
   grid      :      23181. kBytes
   one-center:       1679. kBytes
   wavefun   :     181382. kBytes

     INWAV:  cpu time      0.0000: real time      0.0003
 Broyden mixing: mesh for mixing (old mesh)
   NGX = 37   NGY = 37   NGZ = 31
  (NGX  =112   NGY  =112   NGZ  = 96)
  gives a total of  42439 points

 initial charge density was supplied:
 charge density of overlapping atoms calculated
 number of electron     792.0000000 magnetization
 keeping initial charge density in first step


--------------------------------------------------------------------------------------------------------


 Maximum index for non-local projection operator         1743
 Maximum index for augmentation-charges         1189 (set IRDMAX)


--------------------------------------------------------------------------------------------------------


 First call to EWALD:  gamma=   0.165
 Maximum number of real-space cells 3x 3x 3
 Maximum number of reciprocal cells 3x 3x 3

    FEWALD:  cpu time      0.6113: real time      0.6147


--------------------------------------- Iteration      1(   1)  ---------------------------------------


    POTLOK:  cpu time      0.1775: real time      0.1793
    SETDIJ:  cpu time      0.0101: real time      0.0103
     EDDAV:  cpu time     11.5644: real time     11.6534
       DOS:  cpu time      0.0027: real time      0.0028
    --------------------------------------------
      LOOP:  cpu time     11.7548: real time     11.8457

 eigenvalue-minimisations  :  3824
 total energy-change (2. order) : 0.1156126E+05  (-0.3305840E+05)
 number of electron     792.0000000 magnetization
 augmentation part      792.0000000 magnetization

 Free energy of the ion-electron system (eV)
  ---------------------------------------------------
  alpha Z        PSCENC =      3563.47650690
  Ewald energy   TEWEN  =    -48580.05823812
  -Hartree energ DENC   =    -18847.78814757
  -exchange      EXHF   =         0.00000000
  -V(xc)+E(xc)   XCENC  =      3286.92276293
  PAW double counting   =     54431.09303398   -54537.79254336
  entropy T*S    EENTRO =        -0.13964648
  eigenvalues    EBANDS =      3589.15061291
  atomic energy  EATOM  =     68656.39924158
  Solvation  Ediel_sol  =         0.00000000
  ---------------------------------------------------
  free energy    TOTEN  =     11561.26358277 eV

  energy without entropy =    11561.40322925  energy(sigma->0) =    11561.33340601


--------------------------------------------------------------------------------------------------------




--------------------------------------- Iteration      1(   2)  ---------------------------------------


     EDDAV:  cpu time     11.5510: real time     11.6425
       DOS:  cpu time      0.0008: real time      0.0008
    --------------------------------------------
      LOOP:  cpu time     11.5518: real time     11.6433

 eigenvalue-minimisations  :  3808
 total energy-change (2. order) :-0.9987905E+04  (-0.9556834E+04)
 number of electron     792.0000000 magnetization
 augmentation part      792.0000000 magnetization

 Free energy of the ion-electron system (eV)
  ---------------------------------------------------
  alpha Z        PSCENC =      3563.47650690
  Ewald energy   TEWEN  =    -48580.05823812
  -Hartree energ DENC   =    -18847.78814757
  -exchange      EXHF   =         0.00000000
  -V(xc)+E(xc)   XCENC  =      3286.92276293
  PAW double counting   =     54431.09303398   -54537.79254336
  entropy T*S    EENTRO =        -0.27813881
  eigenvalues    EBANDS =     -6398.61616534
  atomic energy  EATOM  =     68656.39924158
  Solvation  Ediel_sol  =         0.00000000
  ---------------------------------------------------
  free energy    TOTEN  =      1573.35831220 eV

  energy without entropy =     1573.63645100  energy(sigma->0) =     1573.49738160


--------------------------------------------------------------------------------------------------------




--------------------------------------- Iteration      1(   3)  ---------------------------------------


     EDDAV:  cpu time     13.0877: real time     13.1903
       DOS:  cpu time      0.0006: real time      0.0006
    --------------------------------------------
      LOOP:  cpu time     13.0883: real time     13.1909

 eigenvalue-minimisations  :  4432
 total energy-change (2. order) :-0.2643860E+04  (-0.2571542E+04)
 number of electron     792.0000000 magnetization
 augmentation part      792.0000000 magnetization

 Free energy of the ion-electron system (eV)
  ---------------------------------------------------
  alpha Z        PSCENC =      3563.47650690
  Ewald energy   TEWEN  =    -48580.05823812
  -Hartree energ DENC   =    -18847.78814757
  -exchange      EXHF   =         0.00000000
  -V(xc)+E(xc)   XCENC  =      3286.92276293
  PAW double counting   =     54431.09303398   -54537.79254336
  entropy T*S    EENTRO =        -0.00000000
  eigenvalues    EBANDS =     -9042.75425246
  atomic energy  EATOM  =     68656.39924158
  Solvation  Ediel_sol  =         0.00000000
  ---------------------------------------------------
  free energy    TOTEN  =     -1070.50163612 eV

  energy without entropy =    -1070.50163612  energy(sigma->0) =    -1070.50163612


--------------------------------------------------------------------------------------------------------




--------------------------------------- Iteration      1(   4)  ---------------------------------------


     EDDAV:  cpu time     14.7969: real time     14.9065
       DOS:  cpu time      0.0006: real time      0.0006
    --------------------------------------------
      LOOP:  cpu time     14.7975: real time     14.9071

 eigenvalue-minimisations  :  5064
 total energy-change (2. order) :-0.2026772E+03  (-0.2016499E+03)
 number of electron     792.0000000 magnetization
 augmentation part      792.0000000 magnetization

 Free energy of the ion-electron system (eV)
  ---------------------------------------------------
  alpha Z        PSCENC =      3563.47650690
  Ewald energy   TEWEN  =    -48580.05823812
  -Hartree energ DENC   =    -18847.78814757
  -exchange      EXHF   =         0.00000000
  -V(xc)+E(xc)   XCENC  =      3286.92276293
  PAW double counting   =     54431.09303398   -54537.79254336
  entropy T*S    EENTRO =        -0.00000000
  eigenvalues    EBANDS =     -9245.43149020
  atomic energy  EATOM  =     68656.39924158
  Solvation  Ediel_sol  =         0.00000000
  ---------------------------------------------------
  free energy    TOTEN  =     -1273.17887386 eV

  energy without entropy =    -1273.17887386  energy(sigma->0) =    -1273.17887386


--------------------------------------------------------------------------------------------------------




--------------------------------------- Iteration      1(   5)  ---------------------------------------


     EDDAV:  cpu time     14.4105: real time     14.5195
       DOS:  cpu time      0.0007: real time      0.0007
    CHARGE:  cpu time      0.2074: real time      0.2110
    MIXING:  cpu time      0.0116: real time      0.0117
    --------------------------------------------
      LOOP:  cpu time     14.6302: real time     14.7429

 eigenvalue-minimisations  :  4944
 total energy-change (2. order) :-0.4995675E+01  (-0.4985231E+01)
 number of electron     792.0003055 magnetization
 augmentation part      202.2498800 magnetization

 Broyden mixing:
  rms(total) = 0.17266E+02    rms(broyden)= 0.17264E+02
  rms(prec ) = 0.19199E+02
  weight for this iteration     100.00

 Free energy of the ion-electron system (eV)
  ---------------------------------------------------
  alpha Z        PSCENC =      3563.47650690
  Ewald energy   TEWEN  =    -48580.05823812
  -Hartree energ DENC   =    -18847.78814757
  -exchange      EXHF   =         0.00000000
  -V(xc)+E(xc)   XCENC  =      3286.92276293
  PAW double counting   =     54431.09303398   -54537.79254336
  entropy T*S    EENTRO =        -0.00000000
  eigenvalues    EBANDS =     -9250.42716517
  atomic energy  EATOM  =     68656.39924158
  Solvation  Ediel_sol  =         0.00000000
  ---------------------------------------------------
  free energy    TOTEN  =     -1278.17454883 eV

  energy without entropy =    -1278.17454883  energy(sigma->0) =    -1278.17454883


--------------------------------------------------------------------------------------------------------




--------------------------------------- Iteration      1(   6)  ---------------------------------------


    POTLOK:  cpu time      0.1751: real time      0.1764
    SETDIJ:  cpu time      0.0092: real time      0.0093
     EDDAV:  cpu time     14.3932: real time     14.4991
       DOS:  cpu time      0.0006: real time      0.0006
    CHARGE:  cpu time      0.2008: real time      0.2036
    MIXING:  cpu time      0.0116: real time      0.0117
    --------------------------------------------
      LOOP:  cpu time     14.7904: real time     14.9007

 eigenvalue-minimisations  :  4976
 total energy-change (2. order) : 0.3023103E+03  (-0.1971606E+03)
 number of electron     792.0002459 magnetization
 augmentation part      214.1466497 magnetization

 Broyden mixing:
  rms(total) = 0.53207E+01    rms(broyden)= 0.53158E+01
  rms(prec ) = 0.58469E+01
  weight for this iteration     100.00

 eigenvalues of (default mixing * dielectric matrix)
  average eigenvalue GAMMA=   0.9664
  0.9664

 Free energy of the ion-electron system (eV)
  ---------------------------------------------------
  alpha Z        PSCENC =      3563.47650690
  Ewald energy   TEWEN  =    -48580.05823812
  -Hartree energ DENC   =    -19072.35770287
  -exchange      EXHF   =         0.00000000
  -V(xc)+E(xc)   XCENC  =      3337.92869218
  PAW double counting   =     68284.04141003   -68516.35738099
  entropy T*S    EENTRO =        -0.00000000
  eigenvalues    EBANDS =     -8648.93676150
  atomic energy  EATOM  =     68656.39924158
  Solvation  Ediel_sol  =         0.00000000
  ---------------------------------------------------
  free energy    TOTEN  =      -975.86423279 eV

  energy without entropy =     -975.86423279  energy(sigma->0) =     -975.86423279


--------------------------------------------------------------------------------------------------------




--------------------------------------- Iteration      1(   7)  ---------------------------------------


    POTLOK:  cpu time      0.1714: real time      0.1729
    SETDIJ:  cpu time      0.0114: real time      0.0114
     EDDAV:  cpu time     15.2681: real time     15.3765
       DOS:  cpu time      0.0005: real time      0.0005
    CHARGE:  cpu time      0.2077: real time      0.2103
    MIXING:  cpu time      0.0115: real time      0.0116
    --------------------------------------------
      LOOP:  cpu time     15.6706: real time     15.7833

 eigenvalue-minimisations  :  5336
 total energy-change (2. order) : 0.4119189E+01  (-0.2872393E+02)
 number of electron     792.0002651 magnetization
 augmentation part      207.3311797 magnetization

 Broyden mixing:
  rms(total) = 0.46160E+01    rms(broyden)= 0.46157E+01
  rms(prec ) = 0.48093E+01
  weight for this iteration     100.00

 eigenvalues of (default mixing * dielectric matrix)
  average eigenvalue GAMMA=   1.8444
  0.7374  2.9514

 Free energy of the ion-electron system (eV)
  ---------------------------------------------------
  alpha Z        PSCENC =      3563.47650690
  Ewald energy   TEWEN  =    -48580.05823812
  -Hartree energ DENC   =    -18916.92814353
  -exchange      EXHF   =         0.00000000
  -V(xc)+E(xc)   XCENC  =      3318.78795770
  PAW double counting   =     75313.18001073   -75556.46106588
  entropy T*S    EENTRO =        -0.00000000
  eigenvalues    EBANDS =     -8770.14131353
  atomic energy  EATOM  =     68656.39924158
  Solvation  Ediel_sol  =         0.00000000
  ---------------------------------------------------
  free energy    TOTEN  =      -971.74504415 eV

  energy without entropy =     -971.74504415  energy(sigma->0) =     -971.74504415


--------------------------------------------------------------------------------------------------------




--------------------------------------- Iteration      1(   8)  ---------------------------------------


    POTLOK:  cpu time      0.1654: real time      0.1671
    SETDIJ:  cpu time      0.0165: real time      0.0166
     EDDAV:  cpu time     14.4740: real time     14.5766
       DOS:  cpu time      0.0036: real time      0.0036
    CHARGE:  cpu time      0.2026: real time      0.2036
    MIXING:  cpu time      0.0121: real time      0.0122
    --------------------------------------------
      LOOP:  cpu time     14.8742: real time     14.9797

 eigenvalue-minimisations  :  4992
 total energy-change (2. order) :-0.2983036E-01  (-0.1104091E+02)
 number of electron     792.0002586 magnetization
 augmentation part      215.5736133 magnetization

 Broyden mixing:
  rms(total) = 0.33694E+01    rms(broyden)= 0.33693E+01
  rms(prec ) = 0.36688E+01
  weight for this iteration     100.00

 eigenvalues of (default mixing * dielectric matrix)
  average eigenvalue GAMMA=   1.2331
  2.1720  0.9286  0.5986

 Free energy of the ion-electron system (eV)
  ---------------------------------------------------
  alpha Z        PSCENC =      3563.47650690
  Ewald energy   TEWEN  =    -48580.05823812
  -Hartree energ DENC   =    -18539.74297469
  -exchange      EXHF   =         0.00000000
  -V(xc)+E(xc)   XCENC  =      3304.01507684
  PAW double counting   =     93976.31311082   -94291.82228319
  entropy T*S    EENTRO =        -0.00000000
  eigenvalues    EBANDS =     -9060.35531466
  atomic energy  EATOM  =     68656.39924158
  Solvation  Ediel_sol  =         0.00000000
  ---------------------------------------------------
  free energy    TOTEN  =      -971.77487451 eV

  energy without entropy =     -971.77487451  energy(sigma->0) =     -971.77487451


--------------------------------------------------------------------------------------------------------




--------------------------------------- Iteration      1(   9)  ---------------------------------------


    POTLOK:  cpu time      0.1644: real time      0.1656
    SETDIJ:  cpu time      0.0184: real time      0.0185
     EDDAV:  cpu time     14.6359: real time     14.7370
       DOS:  cpu time      0.0032: real time      0.0032
    CHARGE:  cpu time      0.2052: real time      0.2062
    MIXING:  cpu time      0.0113: real time      0.0114
    --------------------------------------------
      LOOP:  cpu time     15.0384: real time     15.1420

 eigenvalue-minimisations  :  5048
 total energy-change (2. order) : 0.5542513E+01  (-0.3446232E+01)
 number of electron     792.0002633 magnetization
 augmentation part      211.4916274 magnetization

 Broyden mixing:
  rms(total) = 0.27368E+00    rms(broyden)= 0.27298E+00
  rms(prec ) = 0.29990E+00
  weight for this iteration     100.00

 eigenvalues of (default mixing * dielectric matrix)
  average eigenvalue GAMMA=   1.1171
  2.1694  0.8261  0.8261  0.6469

 Free energy of the ion-electron system (eV)
  ---------------------------------------------------
  alpha Z        PSCENC =      3563.47650690
  Ewald energy   TEWEN  =    -48580.05823812
  -Hartree energ DENC   =    -18684.18328698
  -exchange      EXHF   =         0.00000000
  -V(xc)+E(xc)   XCENC  =      3308.91010217
  PAW double counting   =     88706.13992172   -89002.51095613
  entropy T*S    EENTRO =        -0.00000000
  eigenvalues    EBANDS =     -8934.40565241
  atomic energy  EATOM  =     68656.39924158
  Solvation  Ediel_sol  =         0.00000000
  ---------------------------------------------------
  free energy    TOTEN  =      -966.23236126 eV

  energy without entropy =     -966.23236126  energy(sigma->0) =     -966.23236126


--------------------------------------------------------------------------------------------------------




--------------------------------------- Iteration      1(  10)  ---------------------------------------


    POTLOK:  cpu time      0.1697: real time      0.1715
    SETDIJ:  cpu time      0.0123: real time      0.0124
     EDDAV:  cpu time     15.0195: real time     15.1225
       DOS:  cpu time      0.0039: real time      0.0040
    CHARGE:  cpu time      0.2120: real time      0.2130
    MIXING:  cpu time      0.0118: real time      0.0118
    --------------------------------------------
      LOOP:  cpu time     15.4292: real time     15.5351

 eigenvalue-minimisations  :  5184
 total energy-change (2. order) :-0.3242139E-01  (-0.8069167E-01)
 number of electron     792.0002628 magnetization
 augmentation part      211.5024610 magnetization

 Broyden mixing:
  rms(total) = 0.20493E+00    rms(broyden)= 0.20486E+00
  rms(prec ) = 0.22139E+00
  weight for this iteration     100.00

 eigenvalues of (default mixing * dielectric matrix)
  average eigenvalue GAMMA=   1.2794
  2.4441  1.7067  1.0696  0.6521  0.5243

 Free energy of the ion-electron system (eV)
  ---------------------------------------------------
  alpha Z        PSCENC =      3563.47650690
  Ewald energy   TEWEN  =    -48580.05823812
  -Hartree energ DENC   =    -18706.56389986
  -exchange      EXHF   =         0.00000000
  -V(xc)+E(xc)   XCENC  =      3310.49019517
  PAW double counting   =     88848.69047559   -89147.11941521
  entropy T*S    EENTRO =        -0.00000000
  eigenvalues    EBANDS =     -8911.57964870
  atomic energy  EATOM  =     68656.39924158
  Solvation  Ediel_sol  =         0.00000000
  ---------------------------------------------------
  free energy    TOTEN  =      -966.26478265 eV

  energy without entropy =     -966.26478265  energy(sigma->0) =     -966.26478265


--------------------------------------------------------------------------------------------------------




--------------------------------------- Iteration      1(  11)  ---------------------------------------


    POTLOK:  cpu time      0.1608: real time      0.1625
    SETDIJ:  cpu time      0.0184: real time      0.0185
     EDDAV:  cpu time     13.2274: real time     13.3182
       DOS:  cpu time      0.0028: real time      0.0029
    CHARGE:  cpu time      0.2100: real time      0.2111
    MIXING:  cpu time      0.0126: real time      0.0126
    --------------------------------------------
      LOOP:  cpu time     13.6321: real time     13.7258

 eigenvalue-minimisations  :  4472
 total energy-change (2. order) :-0.6297133E-01  (-0.4802595E-01)
 number of electron     792.0002618 magnetization
 augmentation part      211.4981220 magnetization

 Broyden mixing:
  rms(total) = 0.21687E+00    rms(broyden)= 0.21684E+00
  rms(prec ) = 0.26166E+00
  weight for this iteration     100.00

 eigenvalues of (default mixing * dielectric matrix)
  average eigenvalue GAMMA=   1.2635
  2.5409  1.8359  1.0084  1.0084  0.5938  0.5938

 Free energy of the ion-electron system (eV)
  ---------------------------------------------------
  alpha Z        PSCENC =      3563.47650690
  Ewald energy   TEWEN  =    -48580.05823812
  -Hartree energ DENC   =    -18747.26933969
  -exchange      EXHF   =         0.00000000
  -V(xc)+E(xc)   XCENC  =      3313.34600594
  PAW double counting   =     89274.36387992   -89576.91731966
  entropy T*S    EENTRO =        -0.00000000
  eigenvalues    EBANDS =     -8869.66849084
  atomic energy  EATOM  =     68656.39924158
  Solvation  Ediel_sol  =         0.00000000
  ---------------------------------------------------
  free energy    TOTEN  =      -966.32775398 eV

  energy without entropy =     -966.32775398  energy(sigma->0) =     -966.32775398


--------------------------------------------------------------------------------------------------------




--------------------------------------- Iteration      1(  12)  ---------------------------------------


    POTLOK:  cpu time      0.1606: real time      0.1623
    SETDIJ:  cpu time      0.0175: real time      0.0175
     EDDAV:  cpu time     15.1891: real time     15.2926
       DOS:  cpu time      0.0030: real time      0.0030
    CHARGE:  cpu time      0.2085: real time      0.2095
    MIXING:  cpu time      0.0133: real time      0.0134
    --------------------------------------------
      LOOP:  cpu time     15.5920: real time     15.6983

 eigenvalue-minimisations  :  5296
 total energy-change (2. order) : 0.5534708E-01  (-0.4995036E-01)
 number of electron     792.0002627 magnetization
 augmentation part      211.1909330 magnetization

 Broyden mixing:
  rms(total) = 0.53464E-01    rms(broyden)= 0.53344E-01
  rms(prec ) = 0.62441E-01
  weight for this iteration     100.00

 eigenvalues of (default mixing * dielectric matrix)
  average eigenvalue GAMMA=   1.2342
  2.5944  1.5387  1.5387  0.9757  0.8224  0.5849  0.5849

 Free energy of the ion-electron system (eV)
  ---------------------------------------------------
  alpha Z        PSCENC =      3563.47650690
  Ewald energy   TEWEN  =    -48580.05823812
  -Hartree energ DENC   =    -18744.61816363
  -exchange      EXHF   =         0.00000000
  -V(xc)+E(xc)   XCENC  =      3312.72156223
  PAW double counting   =     89325.77974328   -89627.62913085
  entropy T*S    EENTRO =        -0.00000000
  eigenvalues    EBANDS =     -8872.34392829
  atomic energy  EATOM  =     68656.39924158
  Solvation  Ediel_sol  =         0.00000000
  ---------------------------------------------------
  free energy    TOTEN  =      -966.27240691 eV

  energy without entropy =     -966.27240691  energy(sigma->0) =     -966.27240691


--------------------------------------------------------------------------------------------------------




--------------------------------------- Iteration      1(  13)  ---------------------------------------


    POTLOK:  cpu time      0.1693: real time      0.1710
    SETDIJ:  cpu time      0.0108: real time      0.0108
     EDDAV:  cpu time     15.1876: real time     15.2907
       DOS:  cpu time      0.0031: real time      0.0031
    CHARGE:  cpu time      0.2105: real time      0.2115
    MIXING:  cpu time      0.0127: real time      0.0128
    --------------------------------------------
      LOOP:  cpu time     15.5939: real time     15.6999

 eigenvalue-minimisations  :  5304
 total energy-change (2. order) : 0.9613285E-03  (-0.2029435E-02)
 number of electron     792.0002626 magnetization
 augmentation part      211.2424143 magnetization

 Broyden mixing:
  rms(total) = 0.20333E-01    rms(broyden)= 0.20322E-01
  rms(prec ) = 0.24226E-01
  weight for this iteration     100.00

 eigenvalues of (default mixing * dielectric matrix)
  average eigenvalue GAMMA=   1.1931
  2.6107  1.7215  1.7215  0.9237  0.7014  0.7014  0.5348  0.6299

 Free energy of the ion-electron system (eV)
  ---------------------------------------------------
  alpha Z        PSCENC =      3563.47650690
  Ewald energy   TEWEN  =    -48580.05823812
  -Hartree energ DENC   =    -18744.62298953
  -exchange      EXHF   =         0.00000000
  -V(xc)+E(xc)   XCENC  =      3312.76829306
  PAW double counting   =     89360.61289481   -89662.46211641
  entropy T*S    EENTRO =        -0.00000000
  eigenvalues    EBANDS =     -8872.38503787
  atomic energy  EATOM  =     68656.39924158
  Solvation  Ediel_sol  =         0.00000000
  ---------------------------------------------------
  free energy    TOTEN  =      -966.27144558 eV

  energy without entropy =     -966.27144558  energy(sigma->0) =     -966.27144558


--------------------------------------------------------------------------------------------------------




--------------------------------------- Iteration      1(  14)  ---------------------------------------


    POTLOK:  cpu time      0.1546: real time      0.1563
    SETDIJ:  cpu time      0.0226: real time      0.0227
     EDDAV:  cpu time     15.2006: real time     15.3033
       DOS:  cpu time      0.0032: real time      0.0032
    CHARGE:  cpu time      0.2091: real time      0.2101
    MIXING:  cpu time      0.0130: real time      0.0131
    --------------------------------------------
      LOOP:  cpu time     15.6031: real time     15.7087

 eigenvalue-minimisations  :  5312
 total energy-change (2. order) : 0.1603182E-03  (-0.1268233E-03)
 number of electron     792.0002626 magnetization
 augmentation part      211.2479024 magnetization

 Broyden mixing:
  rms(total) = 0.11794E-01    rms(broyden)= 0.11792E-01
  rms(prec ) = 0.13799E-01
  weight for this iteration     100.00

 eigenvalues of (default mixing * dielectric matrix)
  average eigenvalue GAMMA=   1.2207
  2.5786  1.8065  1.8065  1.0582  0.9699  0.9699  0.5736  0.5736  0.6494

 Free energy of the ion-electron system (eV)
  ---------------------------------------------------
  alpha Z        PSCENC =      3563.47650690
  Ewald energy   TEWEN  =    -48580.05823812
  -Hartree energ DENC   =    -18745.65773403
  -exchange      EXHF   =         0.00000000
  -V(xc)+E(xc)   XCENC  =      3312.83522521
  PAW double counting   =     89353.15830150   -89654.91872094
  entropy T*S    EENTRO =        -0.00000000
  eigenvalues    EBANDS =     -8871.50586736
  atomic energy  EATOM  =     68656.39924158
  Solvation  Ediel_sol  =         0.00000000
  ---------------------------------------------------
  free energy    TOTEN  =      -966.27128526 eV

  energy without entropy =     -966.27128526  energy(sigma->0) =     -966.27128526


--------------------------------------------------------------------------------------------------------




--------------------------------------- Iteration      1(  15)  ---------------------------------------


    POTLOK:  cpu time      0.1645: real time      0.1663
    SETDIJ:  cpu time      0.0138: real time      0.0139
     EDDAV:  cpu time     15.1996: real time     15.3031
       DOS:  cpu time      0.0032: real time      0.0032
    CHARGE:  cpu time      0.2126: real time      0.2138
    MIXING:  cpu time      0.0144: real time      0.0145
    --------------------------------------------
      LOOP:  cpu time     15.6082: real time     15.7148

 eigenvalue-minimisations  :  5280
 total energy-change (2. order) :-0.1339922E-03  (-0.1032079E-03)
 number of electron     792.0002625 magnetization
 augmentation part      211.2387828 magnetization

 Broyden mixing:
  rms(total) = 0.10414E-01    rms(broyden)= 0.10411E-01
  rms(prec ) = 0.12590E-01
  weight for this iteration     100.00

 eigenvalues of (default mixing * dielectric matrix)
  average eigenvalue GAMMA=   1.2265
  2.6865  2.1477  2.1477  0.8935  0.8935  0.8891  0.8891  0.5861  0.5861  0.5461

 Free energy of the ion-electron system (eV)
  ---------------------------------------------------
  alpha Z        PSCENC =      3563.47650690
  Ewald energy   TEWEN  =    -48580.05823812
  -Hartree energ DENC   =    -18746.77697252
  -exchange      EXHF   =         0.00000000
  -V(xc)+E(xc)   XCENC  =      3312.88495108
  PAW double counting   =     89332.59362552   -89634.17073982
  entropy T*S    EENTRO =        -0.00000000
  eigenvalues    EBANDS =     -8870.61979387
  atomic energy  EATOM  =     68656.39924158
  Solvation  Ediel_sol  =         0.00000000
  ---------------------------------------------------
  free energy    TOTEN  =      -966.27141925 eV

  energy without entropy =     -966.27141925  energy(sigma->0) =     -966.27141925


--------------------------------------------------------------------------------------------------------




--------------------------------------- Iteration      1(  16)  ---------------------------------------


    POTLOK:  cpu time      0.1649: real time      0.1667
    SETDIJ:  cpu time      0.0168: real time      0.0169
     EDDAV:  cpu time     15.1765: real time     15.2833
       DOS:  cpu time      0.0034: real time      0.0035
    CHARGE:  cpu time      0.2051: real time      0.2061
    MIXING:  cpu time      0.0132: real time      0.0133
    --------------------------------------------
      LOOP:  cpu time     15.5800: real time     15.6898

 eigenvalue-minimisations  :  5280
 total energy-change (2. order) : 0.4747948E-04  (-0.1498362E-03)
 number of electron     792.0002625 magnetization
 augmentation part      211.2554652 magnetization

 Broyden mixing:
  rms(total) = 0.56661E-02    rms(broyden)= 0.56623E-02
  rms(prec ) = 0.65048E-02
  weight for this iteration     100.00

 eigenvalues of (default mixing * dielectric matrix)
  average eigenvalue GAMMA=   1.2028
  2.7396  2.4620  1.8987  0.8200  0.8200  0.9545  0.9545  0.8472  0.5840  0.5840
  0.5658

 Free energy of the ion-electron system (eV)
  ---------------------------------------------------
  alpha Z        PSCENC =      3563.47650690
  Ewald energy   TEWEN  =    -48580.05823812
  -Hartree energ DENC   =    -18747.50253044
  -exchange      EXHF   =         0.00000000
  -V(xc)+E(xc)   XCENC  =      3312.94055162
  PAW double counting   =     89330.97446647   -89632.49445073
  entropy T*S    EENTRO =        -0.00000000
  eigenvalues    EBANDS =     -8870.00691905
  atomic energy  EATOM  =     68656.39924158
  Solvation  Ediel_sol  =         0.00000000
  ---------------------------------------------------
  free energy    TOTEN  =      -966.27137177 eV

  energy without entropy =     -966.27137177  energy(sigma->0) =     -966.27137177


--------------------------------------------------------------------------------------------------------




--------------------------------------- Iteration      1(  17)  ---------------------------------------


    POTLOK:  cpu time      0.1594: real time      0.1606
    SETDIJ:  cpu time      0.0236: real time      0.0237
     EDDAV:  cpu time     15.2001: real time     15.3033
       DOS:  cpu time      0.0012: real time      0.0012
    CHARGE:  cpu time      0.2086: real time      0.2097
    MIXING:  cpu time      0.0146: real time      0.0146
    --------------------------------------------
      LOOP:  cpu time     15.6075: real time     15.7132

 eigenvalue-minimisations  :  5312
 total energy-change (2. order) : 0.1589549E-04  (-0.1506078E-04)
 number of electron     792.0002625 magnetization
 augmentation part      211.2514042 magnetization

 Broyden mixing:
  rms(total) = 0.23108E-02    rms(broyden)= 0.23091E-02
  rms(prec ) = 0.27706E-02
  weight for this iteration     100.00

 eigenvalues of (default mixing * dielectric matrix)
  average eigenvalue GAMMA=   1.1716
  2.8184  2.4637  1.8564  1.0259  1.0259  0.8719  0.8719  0.7108  0.7108  0.5876
  0.5876  0.5285

 Free energy of the ion-electron system (eV)
  ---------------------------------------------------
  alpha Z        PSCENC =      3563.47650690
  Ewald energy   TEWEN  =    -48580.05823812
  -Hartree energ DENC   =    -18747.80882929
  -exchange      EXHF   =         0.00000000
  -V(xc)+E(xc)   XCENC  =      3312.95351694
  PAW double counting   =     89325.65428641   -89627.15235484
  entropy T*S    EENTRO =        -0.00000000
  eigenvalues    EBANDS =     -8869.73548546
  atomic energy  EATOM  =     68656.39924158
  Solvation  Ediel_sol  =         0.00000000
  ---------------------------------------------------
  free energy    TOTEN  =      -966.27135588 eV

  energy without entropy =     -966.27135588  energy(sigma->0) =     -966.27135588


--------------------------------------------------------------------------------------------------------




--------------------------------------- Iteration      1(  18)  ---------------------------------------


    POTLOK:  cpu time      0.1653: real time      0.1671
    SETDIJ:  cpu time      0.0135: real time      0.0136
     EDDAV:  cpu time     15.0355: real time     15.1397
       DOS:  cpu time      0.0035: real time      0.0036
    CHARGE:  cpu time      0.2051: real time      0.2061
    MIXING:  cpu time      0.0147: real time      0.0148
    --------------------------------------------
      LOOP:  cpu time     15.4376: real time     15.5447

 eigenvalue-minimisations  :  5232
 total energy-change (2. order) :-0.9448413E-06  (-0.2328983E-05)
 number of electron     792.0002625 magnetization
 augmentation part      211.2512096 magnetization

 Broyden mixing:
  rms(total) = 0.19928E-02    rms(broyden)= 0.19925E-02
  rms(prec ) = 0.24039E-02
  weight for this iteration     100.00

 eigenvalues of (default mixing * dielectric matrix)
  average eigenvalue GAMMA=   1.1710
  2.9122  2.4496  1.8091  1.1711  1.1711  0.9002  0.9002  0.7943  0.7943  0.6581
  0.5703  0.5703  0.5223

 Free energy of the ion-electron system (eV)
  ---------------------------------------------------
  alpha Z        PSCENC =      3563.47650690
  Ewald energy   TEWEN  =    -48580.05823812
  -Hartree energ DENC   =    -18747.87827684
  -exchange      EXHF   =         0.00000000
  -V(xc)+E(xc)   XCENC  =      3312.95608648
  PAW double counting   =     89325.04961012   -89626.54811179
  entropy T*S    EENTRO =        -0.00000000
[...]
      7.58456      3.79228      1.99678     0.01659 -0.01669 -2.87352 ( -0.63508  6.00000)
      7.58456      7.58456      1.99678     0.01661  0.01668 -2.87352 ( -0.63508  6.00000)
      0.00000      1.89614      0.40437    -0.00000  0.00163 -2.89388 ( -0.63481  6.00000)
      0.00000      5.68842      0.40437    -0.00000 -0.00001 -2.88464 ( -0.63475  6.00000)
      0.00000      9.48070      0.40437     0.00000 -0.00161 -2.89387 ( -0.63481  6.00000)
      3.79228      1.89614      0.40437    -0.00537  0.00590 -2.90412 ( -0.63480  6.00000)
      3.79228      5.68842      0.40437    -0.01495  0.00001 -2.90163 ( -0.63450  6.00000)
      3.79228      9.48070      0.40437    -0.00537 -0.00587 -2.90413 ( -0.63480  6.00000)
      7.58456      1.89614      0.40437     0.00538  0.00588 -2.90413 ( -0.63481  6.00000)
      7.58456      5.68842      0.40437     0.01493  0.00000 -2.90160 ( -0.63450  6.00000)
      7.58456      9.48070      0.40437     0.00537 -0.00591 -2.90412 ( -0.63481  6.00000)
      1.89614      1.89614      2.80551    -0.00968 -0.00009 -2.88382 ( -0.63487  6.00000)
      1.89614      5.68842      2.80551     0.03317 -0.00001 -2.89485 ( -0.63467  6.00000)
      1.89614      9.48070      2.80551    -0.00967  0.00011 -2.88380 ( -0.63487  6.00000)
      5.68842      1.89614      2.80551     0.00003 -0.00590 -2.86463 ( -0.63496  6.00000)
      5.68842      5.68842      2.80551    -0.00000  0.00002 -3.24865 ( -0.64416  6.00000)
      5.68842      9.48070      2.80551    -0.00000  0.00589 -2.86464 ( -0.63496  6.00000)
      9.48070      1.89614      2.80551     0.00968 -0.00006 -2.88380 ( -0.63487  6.00000)
      9.48070      5.68842      2.80551    -0.03315  0.00001 -2.89486 ( -0.63467  6.00000)
      9.48070      9.48070      2.80551     0.00971  0.00009 -2.88380 ( -0.63487  6.00000)
 -----------------------------------------------------------------------------------------
    total drift (improves with k-points):   0.00005  0.00030 -0.06839




--------------------------------------------------------------------------------------------------------




 MACROSCOPIC STATIC DIELECTRIC TENSOR (including local field effects in DFT)
 ------------------------------------------------------
           6.921245     0.000001    -0.000001
           0.000002     7.001122    -0.000005
           0.000001    -0.000006     6.367822
 ------------------------------------------------------



--------------------------------------------------------------------------------------------------------




--------------------------------------------------------------------------------------------------------




 MACROSCOPIC STATIC DIELECTRIC TENSOR (including local field effects in DFT)
 ------------------------------------------------------
           6.921245     0.000001    -0.000001
           0.000002     7.001122    -0.000005
           0.000001    -0.000006     6.367822
 ------------------------------------------------------


 PIEZOELECTRIC TENSOR (including local field effects)  for field in x, y, z        (e  Angst)
          XX          YY          ZZ          XY          YZ          ZX
  --------------------------------------------------------------------------------
  x    -0.00085     0.00223    -0.00110     0.00029    -0.00013    -0.11813
  y    -0.00108     0.00349    -0.00175     0.00020    -0.05060     0.00008
  z    -1.01936    -1.42487     0.27433    -0.00007    -0.00020     0.00021

 PIEZOELECTRIC TENSOR (including local field effects)  for field in x, y, z        (C/m^2)
          XX          YY          ZZ          XY          YZ          ZX
  --------------------------------------------------------------------------------
  x    -0.00001     0.00003    -0.00001     0.00000    -0.00000    -0.00152
  y    -0.00001     0.00005    -0.00002     0.00000    -0.00065     0.00000
  z    -0.01314    -0.01836     0.00354    -0.00000    -0.00000     0.00000

 BORN EFFECTIVE CHARGES (including local field effects) (in |e|, cummulative output)
 ---------------------------------------------------------------------------------
 ion    1
    1     6.62435    -0.00763     0.00092
    2     0.00568     6.69270    -0.00074
    3    -0.01476    -0.01822     5.78800
 ion    2
    1     6.55127     0.00007    -0.00430
    2     0.00002     6.66151    -0.00002
    3    -0.05453     0.00004     5.82881
 ion    3
    1     6.62435     0.00758     0.00091
    2    -0.00569     6.69272     0.00066
    3    -0.01479     0.01821     5.78798
 ion    4
    1     6.64422     0.00005     0.00004
    2     0.00002     6.68942    -0.00033
    3    -0.00003    -0.04232     5.72278
 ion    5
    1     7.16578     0.00003    -0.00004
    2    -0.00002     5.88217    -0.00004
    3    -0.00002    -0.00000     5.73147
 ion    6
    1     6.64421     0.00001     0.00002
    2    -0.00002     6.68938     0.00033
    3    -0.00001     0.04242     5.72277
 ion    7
    1     6.62433     0.00763    -0.00086
    2    -0.00568     6.69274    -0.00071
    3     0.01473    -0.01825     5.78798
 ion    8
    1     6.55125    -0.00003     0.00433
    2     0.00007     6.66146    -0.00005
    3     0.05449    -0.00002     5.82881
 ion    9
    1     6.62434    -0.00761    -0.00089
    2     0.00567     6.69271     0.00067
    3     0.01474     0.01826     5.78797
 ion   10
    1     6.63737    -0.00002    -0.00030
    2    -0.00002     6.68208     0.00001
    3     0.00082    -0.00002     5.78722
 ion   11
    1     6.61409    -0.00903     0.00082
    2     0.05677     6.62341     0.00165
    3     0.05336    -0.00634     5.79271
 ion   12
    1     6.61419     0.00907     0.00080
    2    -0.05673     6.62334    -0.00174
    3     0.05337     0.00631     5.79273
 ion   13
    1     6.65070    -0.00001     0.00004
    2     0.00007     6.73826    -0.00005
    3    -0.00003    -0.00000     5.77881
 ion   14
    1     6.59171     0.00004    -0.00002
    2     0.00001     7.07827     0.03675
    3    -0.00000     0.16089     5.78050
 ion   15
    1     6.59180     0.00003    -0.00001
    2     0.00004     7.07823    -0.03684
    3    -0.00001    -0.16096     5.78048
 ion   16
    1     6.63734     0.00008     0.00034
    2     0.00002     6.68209    -0.00003
    3    -0.00080    -0.00002     5.78724
 ion   17
    1     6.61412     0.00905    -0.00080
    2    -0.05672     6.62343     0.00166
    3    -0.05334    -0.00632     5.79271
 ion   18
    1     6.61411    -0.00900    -0.00080
    2     0.05677     6.62339    -0.00176
    3    -0.05339     0.00631     5.79272
 ion   19
    1     6.64936    -0.00001     0.00003
    2     0.00005     6.66646    -0.00003
    3    -0.00000    -0.00002     5.78651
 ion   20
    1     6.64560    -0.00004     0.00000
    2     0.00003     6.63333     0.00071
    3    -0.00004     0.00106     5.76296
 ion   21
    1     6.64562     0.00002     0.00003
    2    -0.00004     6.63329    -0.00071
    3     0.00002    -0.00106     5.76291
 ion   22
    1     6.68791    -0.00004     0.00059
    2     0.00001     6.67839     0.00000
    3     0.00249     0.00001     5.80739
 ion   23
    1     6.74475    -0.03124    -0.00394
    2     0.02947     6.57631     0.00588
    3     0.03351     0.02916     5.77034
 ion   24
    1     6.74472     0.03120    -0.00389
    2    -0.02949     6.57635    -0.00585
    3     0.03354    -0.02917     5.77034
 ion   25
    1     6.68788    -0.00004    -0.00051
    2    -0.00008     6.67843     0.00003
    3    -0.00248     0.00000     5.80738
 ion   26
    1     6.74473     0.03123     0.00394
    2    -0.02949     6.57634     0.00584
    3    -0.03354     0.02913     5.77035
 ion   27
    1     6.74482    -0.03136     0.00399
    2     0.02950     6.57633    -0.00586
    3    -0.03353    -0.02915     5.77033
 ion   28
    1     6.64125    -0.00005    -0.00002
    2     0.00005     6.68397     0.00015
    3     0.00000    -0.00224     5.78690
 ion   29
    1     6.60590    -0.00009    -0.00005
    2    -0.00002     6.65843    -0.00002
    3    -0.00002     0.00002     5.78430
 ion   30
    1     6.64128    -0.00004    -0.00003
    2     0.00001     6.68395    -0.00015
    3    -0.00001     0.00223     5.78690
 ion   31
    1     6.70104    -0.06165    -0.00387
    2     0.00901     6.70293    -0.00080
    3    -0.00619     0.04092     5.79191
 ion   32
    1     6.15537    -0.00000    -0.03698
    2    -0.00003     6.69710    -0.00003
    3     0.03896    -0.00002     5.77547
 ion   33
    1     6.70098     0.06162    -0.00385
    2    -0.00900     6.70294     0.00079
    3    -0.00618    -0.04100     5.79192
 ion   34
    1     6.70098     0.06164     0.00380
    2    -0.00905     6.70297    -0.00079
    3     0.00614     0.04098     5.79192
 ion   35
    1     6.15532     0.00002     0.03696
    2    -0.00002     6.69713    -0.00003
    3    -0.03894     0.00001     5.77547
 ion   36
    1     6.70102    -0.06163     0.00380
    2     0.00905     6.70295     0.00078
    3     0.00615    -0.04097     5.79190
 ion   37
    1    -5.51833     0.00002     0.00000
    2    -0.00001    -1.13090    -0.00381
    3    -0.00000     0.00186    -2.89046
 ion   38
    1    -5.45179     0.00002     0.00000
    2    -0.00001    -1.11355    -0.00001
    3     0.00002    -0.00001    -2.89862
 ion   39
    1    -5.51835     0.00001    -0.00001
    2    -0.00001    -1.13091     0.00381
    3     0.00003    -0.00185    -2.89044
 ion   40
    1    -5.51051     0.00690     0.02156
    2    -0.01840    -1.12307    -0.00416
    3     0.00902     0.00308    -2.89449
 ion   41
    1    -5.61793    -0.00000     0.05748
    2    -0.00001    -1.11779     0.00003
    3     0.13000     0.00001    -2.82760
 ion   42
    1    -5.51047    -0.00690     0.02158
    2     0.01837    -1.12307     0.00419
    3     0.00902    -0.00305    -2.89448
 ion   43
    1    -5.51042    -0.00686    -0.02161
    2     0.01837    -1.12308    -0.00420
    3    -0.00899     0.00305    -2.89449
 ion   44
    1    -5.61793    -0.00000    -0.05745
    2    -0.00003    -1.11783    -0.00000
    3    -0.13001    -0.00002    -2.82761
 ion   45
    1    -5.51050     0.00688    -0.02157
    2    -0.01837    -1.12309     0.00419
    3    -0.00900    -0.00305    -2.89448
 ion   46
    1    -1.11266    -0.00130     0.00021
    2    -0.00191    -5.55497     0.00128
    3    -0.00131    -0.00920    -2.90598
 ion   47
    1    -1.10410    -0.00001    -0.00205
    2    -0.00002    -5.46539     0.00007
    3    -0.00506     0.00002    -2.92434
 ion   48
    1    -1.11271     0.00130     0.00014
    2     0.00201    -5.55492    -0.00126
    3    -0.00133     0.00924    -2.90601
 ion   49
    1    -1.13396     0.00000    -0.00007
    2    -0.00001    -5.65742    -0.00220
    3    -0.00000     0.03425    -2.90183
 ion   50
    1    -1.21284    -0.00005     0.00002
    2     0.00001    -6.08079     0.00001
    3     0.00000     0.00004    -2.47996
 ion   51
    1    -1.13398    -0.00002     0.00002
    2    -0.00010    -5.65738     0.00224
    3     0.00000    -0.03422    -2.90182
 ion   52
    1    -1.11273     0.00127    -0.00018
    2     0.00191    -5.55500     0.00129
    3     0.00134    -0.00920    -2.90600
 ion   53
    1    -1.10407    -0.00002     0.00203
    2    -0.00001    -5.46536     0.00002
    3     0.00508     0.00000    -2.92432
 ion   54
    1    -1.11267    -0.00133    -0.00018
    2    -0.00194    -5.55499    -0.00119
    3     0.00134     0.00923    -2.90598
 ion   55
    1    -1.11499     0.00004    -0.00413
    2    -0.00003    -5.55780     0.00001
    3     0.00127     0.00002    -2.89849
 ion   56
    1    -1.11730     0.02068    -0.00631
    2    -0.00639    -5.55469     0.01713
    3     0.00416     0.01585    -2.90026
 ion   57
    1    -1.11731    -0.02070    -0.00632
    2     0.00635    -5.55472    -0.01709
    3     0.00417    -0.01587    -2.90026
 ion   58
    1    -1.13529    -0.00003    -0.00001
    2     0.00002    -5.60506    -0.00000
    3     0.00002    -0.00006    -2.88896
 ion   59
    1    -1.14223    -0.00003     0.00001
    2    -0.00006    -5.23639    -0.03046
    3     0.00001     0.09619    -2.92888
 ion   60
    1    -1.14226     0.00002     0.00001
    2     0.00006    -5.23633     0.03049
    3    -0.00000    -0.09620    -2.92886
 ion   61
    1    -1.11499     0.00001     0.00412
    2     0.00001    -5.55785     0.00001
    3    -0.00126    -0.00000    -2.89850
 ion   62
    1    -1.11727    -0.02069     0.00631
    2     0.00637    -5.55470     0.01713
    3    -0.00415     0.01591    -2.90024
 ion   63
    1    -1.11731     0.02068     0.00629
    2    -0.00640    -5.55464    -0.01706
    3    -0.00415    -0.01588    -2.90024
 ion   64
    1    -5.52409    -0.00005    -0.00004
    2    -0.00000    -1.12576     0.00002
    3    -0.00002     0.00001    -2.89412
 ion   65
    1    -5.51818     0.00006    -0.00003
    2    -0.00003    -1.12002     0.00700
    3     0.00002     0.00229    -2.88959
 ion   66
    1    -5.51812     0.00002     0.00006
    2    -0.00000    -1.11999    -0.00698
    3    -0.00000    -0.00228    -2.88958
 ion   67
    1    -5.52430     0.00004    -0.01112
    2    -0.00000    -1.12479     0.00006
    3     0.01010     0.00001    -2.90594
 ion   68
    1    -5.48359     0.01487    -0.05446
    2    -0.12656    -1.12732     0.02528
    3    -0.04728    -0.02542    -2.89791
 ion   69
    1    -5.48371    -0.01489    -0.05457
    2     0.12651    -1.12725    -0.02535
    3    -0.04733     0.02540    -2.89792
 ion   70
    1    -5.52425     0.00003     0.01110
    2    -0.00006    -1.12478    -0.00004
    3    -0.01007     0.00001    -2.90593
 ion   71
    1    -5.48362    -0.01490     0.05449
    2     0.12655    -1.12727     0.02534
    3     0.04728    -0.02540    -2.89791
 ion   72
    1    -5.48373     0.01495     0.05448
    2    -0.12656    -1.12733    -0.02534
    3     0.04732     0.02541    -2.89793
 ion   73
    1    -5.53201     0.00005     0.00094
    2    -0.00001    -1.12707     0.00001
    3     0.00201    -0.00001    -2.89307
 ion   74
    1    -5.52327     0.00249     0.00109
    2    -0.01636    -1.11719     0.00903
    3     0.00338    -0.00557    -2.88183
 ion   75
    1    -5.52330    -0.00255     0.00115
    2     0.01637    -1.11718    -0.00905
    3     0.00333     0.00555    -2.88181
 ion   76
    1    -5.58425    -0.00002    -0.00005
    2     0.00003    -1.13013     0.00004
    3     0.00000    -0.00001    -2.89864
 ion   77
    1    -5.67807     0.00002     0.00004
    2    -0.00001    -1.13000     0.05763
    3    -0.00002    -0.01547    -2.86678
 ion   78
    1    -5.67821     0.00003    -0.00009
    2     0.00002    -1.13005    -0.05764
    3     0.00000     0.01546    -2.86682
 ion   79
    1    -5.53194    -0.00001    -0.00099
    2     0.00001    -1.12707    -0.00002
    3    -0.00202    -0.00000    -2.89305
 ion   80
    1    -5.52333    -0.00252    -0.00112
    2     0.01638    -1.11722     0.00906
    3    -0.00332    -0.00557    -2.88183
 ion   81
    1    -5.52339     0.00250    -0.00121
    2    -0.01635    -1.11718    -0.00901
    3    -0.00336     0.00555    -2.88183
 ion   82
    1    -1.11935     0.00002     0.00000
    2    -0.00001    -5.55260     0.00000
    3     0.00001    -0.00000    -2.89177
 ion   83
    1    -1.12190     0.00003     0.00000
    2    -0.00001    -5.54660    -0.01139
    3     0.00001     0.01286    -2.87893
 ion   84
    1    -1.12192     0.00005    -0.00005
    2     0.00002    -5.54656     0.01143
    3    -0.00000    -0.01289    -2.87893
 ion   85
    1    -1.12727     0.00000     0.00751
    2    -0.00000    -5.55730    -0.00001
    3     0.00207     0.00002    -2.89804
 ion   86
    1    -1.11398     0.13721     0.03446
    2    -0.01392    -5.57446    -0.05582
    3    -0.01657    -0.01665    -2.87288
 ion   87
    1    -1.11400    -0.13719     0.03449
    2     0.01389    -5.57453     0.05581
    3    -0.01658     0.01669    -2.87287
 ion   88
    1    -1.12728    -0.00002    -0.00755
    2    -0.00003    -5.55737     0.00002
    3    -0.00208    -0.00000    -2.89806
 ion   89
    1    -1.11400    -0.13720    -0.03445
    2     0.01395    -5.57451    -0.05586
    3     0.01659    -0.01669    -2.87289
 ion   90
    1    -1.11401     0.13718    -0.03447
    2    -0.01391    -5.57447     0.05588
    3     0.01661     0.01668    -2.87288
 ion   91
    1    -1.11844     0.00002    -0.00002
    2    -0.00002    -5.54284     0.00081
    3    -0.00000     0.00163    -2.89324
 ion   92
    1    -1.11625    -0.00003     0.00000
    2     0.00002    -5.48994    -0.00001
    3    -0.00001    -0.00001    -2.88400
 ion   93
    1    -1.11849     0.00002     0.00001
    2    -0.00000    -5.54287    -0.00075
    3    -0.00000    -0.00162    -2.89323
 ion   94
    1    -1.12964     0.01633     0.01082
    2    -0.00249    -5.55304     0.00110
    3    -0.00537     0.00589    -2.90348
 ion   95
    1    -1.11844     0.00005     0.06294
    2     0.00001    -5.39459     0.00001
    3    -0.01495     0.00000    -2.90099
 ion   96
    1    -1.12961    -0.01635     0.01075
    2     0.00249    -5.55311    -0.00113
    3    -0.00537    -0.00588    -2.90349
 ion   97
    1    -1.12963    -0.01630    -0.01078
    2     0.00254    -5.55316     0.00111
    3     0.00538     0.00588    -2.90350
 ion   98
    1    -1.11843     0.00002    -0.06295
    2    -0.00004    -5.39456     0.00002
    3     0.01493    -0.00000    -2.90097
 ion   99
    1    -1.12963     0.01638    -0.01074
    2    -0.00246    -5.55309    -0.00114
    3     0.00537    -0.00591    -2.90349
 ion  100
    1    -5.52059     0.00231     0.00135
    2     0.00097    -1.13461     0.00050
    3    -0.00968    -0.00009    -2.88319
 ion  101
    1    -5.40644    -0.00002    -0.00822
    2     0.00003    -1.10397     0.00001
    3     0.03317    -0.00002    -2.89422
 ion  102
    1    -5.52056    -0.00225     0.00135
    2    -0.00093    -1.13456    -0.00050
    3    -0.00967     0.00011    -2.88317
 ion  103
    1    -5.61460    -0.00004     0.00002
    2     0.00001    -1.14267     0.00197
    3     0.00003    -0.00590    -2.86400
 ion  104
    1    -4.94518    -0.00002     0.00003
    2     0.00002    -0.96841     0.00002
    3    -0.00000     0.00001    -3.24802
 ion  105
    1    -5.61461    -0.00000     0.00003
    2    -0.00002    -1.14268    -0.00197
    3    -0.00000     0.00588    -2.86401
 ion  106
    1    -5.52054    -0.00233    -0.00134
    2    -0.00094    -1.13459     0.00055
    3     0.00968    -0.00007    -2.88316
 ion  107
    1    -5.40640     0.00002     0.00833
    2     0.00001    -1.10399     0.00000
    3    -0.03315     0.00000    -2.89422
 ion  108
    1    -5.52058     0.00228    -0.00130
    2     0.00093    -1.13458    -0.00051
    3     0.00971     0.00009    -2.88316


--------------------------------------------------------------------------------------------------------


     LOOP+:  cpu time   1500.8144: real time   1541.4910
    4ORBIT:  cpu time      0.0000: real time      0.0000

 total amount of memory used by VASP MPI-rank0   266725. kBytes
=======================================================================

   base      :      30000. kBytes
   nonlr-proj:      19556. kBytes
   fftplans  :      10927. kBytes
   grid      :      23181. kBytes
   one-center:       1679. kBytes
   wavefun   :     181382. kBytes



 General timing and accounting informations for this job:
 ========================================================

                  Total CPU time used (sec):     1517.478
                            User time (sec):     1471.022
                          System time (sec):       46.456
                         Elapsed time (sec):     1577.347

                   Maximum memory used (kb):     1086004.
                   Average memory used (kb):          N/A

                          Minor page faults:      1401152
                          Major page faults:            0
                 Voluntary context switches:       130002
