 vasp.6.3.0 20Jan22 (build Mar 29 2022 16:24:06) complex

 executed on             Bridges2 date 2023.01.10  17:44:20
 running on   32 total cores
 distrk:  each k-point on    4 cores,    8 groups
 distr:  one band on NCORE=   1 cores,    4 groups


--------------------------------------------------------------------------------------------------------


 INCAR:
   ICHARG = 2
   LWAVE = .FALSE.
   LCHARG = .FALSE.
   LVTOT = .FALSE.
   NCORE = 1
   KPAR = 8
   EDIFF = 1E-7
   NELM = 80
   PREC = Normal
   LREAL = Auto
   NELMIN = 4
   ENCUT = 400.0 eV
   ISPIN = 1
   ISMEAR = 0
   SIGMA = 0.10
   NSW = 0
   LEPSILON = .TRUE.
   LPEAD = .TRUE.
   ISYM = 0

 POTCAR:    PAW_PBE Ti_pv 07Sep2000
 POTCAR:    PAW_PBE O 08Apr2002
 -----------------------------------------------------------------------------
|                                                                             |
|           W    W    AA    RRRRR   N    N  II  N    N   GGGG   !!!           |
|           W    W   A  A   R    R  NN   N  II  NN   N  G    G  !!!           |
|           W    W  A    A  R    R  N N  N  II  N N  N  G       !!!           |
|           W WW W  AAAAAA  RRRRR   N  N N  II  N  N N  G  GGG   !            |
|           WW  WW  A    A  R   R   N   NN  II  N   NN  G    G                |
|           W    W  A    A  R    R  N    N  II  N    N   GGGG   !!!           |
|                                                                             |
|     For optimal performance we recommend to set                             |
|       NCORE = 2 up to number-of-cores-per-socket                            |
|     NCORE specifies how many cores store one orbital (NPAR=cpu/NCORE).      |
|     This setting can greatly improve the performance of VASP for DFT.       |
|     The default, NCORE=1 might be grossly inefficient on modern             |
|     multi-core architectures or massively parallel machines. Do your        |
|     own testing! More info at https://www.vasp.at/wiki/index.php/NCORE      |
|     Unfortunately you need to use the default for GW and RPA                |
|     calculations (for HF NCORE is supported but not extensively tested      |
|     yet).                                                                   |
|                                                                             |
 -----------------------------------------------------------------------------

 POTCAR:    PAW_PBE Ti_pv 07Sep2000
   VRHFIN =Ti: d3 s1
   LEXCH  = PE
   EATOM  =  1042.5995 eV,   76.6289 Ry

   TITEL  = PAW_PBE Ti_pv 07Sep2000
   LULTRA =        F    use ultrasoft PP ?
   IUNSCR =        1    unscreen: 0-lin 1-nonlin 2-no
   RPACOR =    2.200    partial core radius
   POMASS =   47.880; ZVAL   =   10.000    mass and valenz
   RCORE  =    2.500    outmost cutoff radius
   RWIGS  =    2.500; RWIGS  =    1.323    wigner-seitz radius (au A)
   ENMAX  =  222.335; ENMIN  =  166.751 eV
   RCLOC  =    1.701    cutoff for local pot
   LCOR   =        T    correct aug charges
   LPAW   =        T    paw PP
   EAUG   =  482.848
   DEXC   =    0.000
   RMAX   =    2.564    core radius for proj-oper
   RAUG   =    1.300    factor for augmentation sphere
   RDEP   =    2.538    radius for radial grids
   RDEPT  =    1.952    core radius for aug-charge

   Atomic configuration
    8 entries
     n  l   j            E        occ.
     1  0  0.50     -4865.3608   2.0000
     2  0  0.50      -533.1368   2.0000
     2  1  1.50      -440.5031   6.0000
     3  0  0.50       -59.3186   2.0000
     3  1  1.50       -35.7012   6.0000
     3  2  2.50        -1.9157   3.0000
     4  0  0.50        -3.7291   1.0000
     4  3  2.50        -1.3606   0.0000
   Description
     l       E           TYP  RCUT    TYP  RCUT
     1    -35.7012140     23  2.300
     1     -1.3605826     23  2.300
     2     -1.9156996     23  2.500
     2     -0.4063033     23  2.500
     0     -3.7290856     23  2.500
     0     20.4087390     23  2.500
  local pseudopotential read in
  partial core-charges read in
  partial kinetic energy density read in
  atomic valenz-charges read in
  non local Contribution for L=           1  read in
    real space projection operators read in
  non local Contribution for L=           1  read in
    real space projection operators read in
  non local Contribution for L=           2  read in
    real space projection operators read in
  non local Contribution for L=           2  read in
    real space projection operators read in
  non local Contribution for L=           0  read in
    real space projection operators read in
  non local Contribution for L=           0  read in
    real space projection operators read in
    PAW grid and wavefunctions read in

   number of l-projection  operators is LMAX  =           6
   number of lm-projection operators is LMMAX =          18

 POTCAR:    PAW_PBE O 08Apr2002
   VRHFIN =O: s2p4
   LEXCH  = PE
   EATOM  =   432.3788 eV,   31.7789 Ry

   TITEL  = PAW_PBE O 08Apr2002
   LULTRA =        F    use ultrasoft PP ?
   IUNSCR =        1    unscreen: 0-lin 1-nonlin 2-no
   RPACOR =    1.200    partial core radius
   POMASS =   16.000; ZVAL   =    6.000    mass and valenz
   RCORE  =    1.520    outmost cutoff radius
   RWIGS  =    1.550; RWIGS  =    0.820    wigner-seitz radius (au A)
   ENMAX  =  400.000; ENMIN  =  300.000 eV
   ICORE  =        2    local potential
   LCOR   =        T    correct aug charges
   LPAW   =        T    paw PP
   EAUG   =  605.392
   DEXC   =    0.000
   RMAX   =    1.553    core radius for proj-oper
   RAUG   =    1.300    factor for augmentation sphere
   RDEP   =    1.550    radius for radial grids
   RDEPT  =    1.329    core radius for aug-charge

   Atomic configuration
    4 entries
     n  l   j            E        occ.
     1  0  0.50      -514.6923   2.0000
     2  0  0.50       -23.9615   2.0000
     2  1  0.50        -9.0305   4.0000
     3  2  1.50        -9.5241   0.0000
   Description
     l       E           TYP  RCUT    TYP  RCUT
     0    -23.9615318     23  1.200
     0     -9.5240782     23  1.200
     1     -9.0304911     23  1.520
     1      8.1634956     23  1.520
     2     -9.5240782      7  1.500
  local pseudopotential read in
  partial core-charges read in
  partial kinetic energy density read in
  kinetic energy density of atom read in
  atomic valenz-charges read in
  non local Contribution for L=           0  read in
    real space projection operators read in
  non local Contribution for L=           0  read in
    real space projection operators read in
  non local Contribution for L=           1  read in
    real space projection operators read in
  non local Contribution for L=           1  read in
    real space projection operators read in
    PAW grid and wavefunctions read in

   number of l-projection  operators is LMAX  =           4
   number of lm-projection operators is LMMAX =           8

 Optimization of the real space projectors (new method)

 maximal supplied QI-value         = 15.12
 optimisation between [QCUT,QGAM] = [ 10.13, 20.41] = [ 28.73,116.64] Ry
 Optimized for a Real-space Cutoff    1.51 Angstroem

   l    n(q)    QCUT    max X(q) W(low)/X(q) W(high)/X(q)  e(spline)
   1      9    10.129     4.216    0.12E-04    0.72E-04    0.60E-07
   1      9    10.129     5.422    0.84E-04    0.21E-03    0.15E-06
   2      8    10.129    72.084    0.33E-03    0.35E-04    0.17E-06
   2      8    10.129    65.965    0.33E-03    0.37E-04    0.17E-06
   0      9    10.129    41.531    0.17E-03    0.19E-03    0.81E-07
   0      9    10.129    16.290    0.12E-03    0.14E-03    0.64E-07
 Optimization of the real space projectors (new method)

 maximal supplied QI-value         = 24.76
 optimisation between [QCUT,QGAM] = [ 10.15, 20.30] = [ 28.85,115.39] Ry
 Optimized for a Real-space Cutoff    1.38 Angstroem

   l    n(q)    QCUT    max X(q) W(low)/X(q) W(high)/X(q)  e(spline)
   0      8    10.150    20.381    0.22E-03    0.32E-03    0.29E-06
   0      8    10.150    15.268    0.23E-03    0.35E-03    0.30E-06
   1      8    10.150     5.964    0.46E-03    0.53E-03    0.21E-06
   1      8    10.150     5.382    0.38E-03    0.45E-03    0.19E-06
  PAW_PBE Ti_pv 07Sep2000               :
 energy of atom  1       EATOM=-1042.5995
 kinetic energy error for atom=    0.0037 (will be added to EATOM!!)
  PAW_PBE O 08Apr2002                   :
 energy of atom  2       EATOM= -432.3788
 kinetic energy error for atom=    0.1156 (will be added to EATOM!!)


 POSCAR: Ti4 O8
  positions in cartesian coordinates
  No initial velocities read in
 exchange correlation table for  LEXCH =        8
   RHO(1)=    0.500       N(1)  =     2000
   RHO(2)=  100.500       N(2)  =     4000



--------------------------------------------------------------------------------------------------------


 ion  position               nearest neighbor table
   1  0.167  0.167  0.500-  56 1.94  55 1.94  40 1.94  37 1.94 100 2.00  46 2.00  31 3.06  28 3.06
                            11 3.06  10 3.06
   2  0.167  0.500  0.500-  56 1.94  41 1.94  38 1.94  57 1.94 101 2.00  47 2.00  11 3.06  32 3.06
                            29 3.06  12 3.06
   3  0.167  0.833  0.500-  57 1.94  42 1.94  39 1.94  55 1.94 102 2.00  48 2.00  12 3.06  33 3.06
                            30 3.06  10 3.06
   4  0.500  0.167  0.500-  40 1.94  59 1.94  58 1.94  43 1.94 103 2.00  49 2.00  31 3.06  14 3.06
                            13 3.06  34 3.06
   5  0.500  0.500  0.510-  50 1.90  59 1.92  60 1.92  41 1.96  44 1.96 104 2.10  14 2.98  15 2.98
                            32 3.14  35 3.14
   6  0.500  0.833  0.500-  60 1.94  42 1.94  58 1.94  45 1.94 105 2.00  51 2.00  15 3.06  33 3.06
                            13 3.06  36 3.06
   7  0.833  0.167  0.500-  43 1.94  62 1.94  61 1.94  37 1.94 106 2.00  52 2.00  34 3.06  17 3.06
                            16 3.06  28 3.06
   8  0.833  0.500  0.500-  44 1.94  62 1.94  63 1.94  38 1.94 107 2.00  53 2.00  35 3.06  17 3.06
                            29 3.06  18 3.06
   9  0.833  0.833  0.500-  63 1.94  45 1.94  61 1.94  39 1.94 108 2.00  54 2.00  36 3.06  18 3.06
                            30 3.06  16 3.06
  10  0.167  0.000  0.750-  67 1.94  64 1.94  46 1.94  48 1.94  73 2.00  55 2.00  22 3.06  19 3.06
                             1 3.06   3 3.06
  11  0.167  0.333  0.750-  47 1.94  46 1.94  68 1.94  65 1.94  74 2.00  56 2.00   2 3.06  23 3.06
                            20 3.06   1 3.06
  12  0.167  0.667  0.750-  48 1.94  69 1.94  66 1.94  47 1.94  75 2.00  57 2.00   3 3.06  24 3.06
                            21 3.06   2 3.06
  13  0.500  0.000  0.750-  67 1.94  49 1.94  51 1.94  70 1.94  76 2.00  58 2.00  22 3.06   4 3.06
                            25 3.06   6 3.06
  14  0.500  0.333  0.750-  50 1.94  68 1.94  49 1.94  71 1.94  77 2.00  59 2.00   5 2.98  23 3.06
                             4 3.06  26 3.06
  15  0.500  0.667  0.750-  51 1.94  69 1.94  50 1.94  72 1.94  78 2.00  60 2.00   5 2.98   6 3.06
                            24 3.06  27 3.06
  16  0.833  0.000  0.750-  70 1.94  52 1.94  64 1.94  54 1.94  79 2.00  61 2.00  25 3.06   7 3.06
                            19 3.06   9 3.06
  17  0.833  0.333  0.750-  71 1.94  53 1.94  52 1.94  65 1.94  80 2.00  62 2.00  26 3.06   8 3.06
                             7 3.06  20 3.06
  18  0.833  0.667  0.750-  54 1.94  72 1.94  66 1.94  53 1.94  81 2.00  63 2.00  27 3.06   9 3.06
                            21 3.06   8 3.06
  19  0.000  0.000  0.000-  73 1.94  91 1.94  79 1.94  93 1.94  82 2.00  64 2.00  10 3.06  28 3.06
                            16 3.06  30 3.06
  20  0.000  0.333  0.000-  92 1.94  74 1.94  91 1.94  80 1.94  83 2.00  65 2.00  29 3.06  11 3.06
                            28 3.06  17 3.06
  21  0.000  0.667  0.000-  93 1.94  75 1.94  81 1.94  92 1.94  84 2.00  66 2.00  30 3.06  12 3.06
                            18 3.06  29 3.06
  22  0.333  0.000  0.000-  76 1.94  73 1.94  94 1.94  96 1.94  85 2.00  67 2.00  13 3.06  10 3.06
                            31 3.06  33 3.06
  23  0.333  0.333  0.000-  77 1.94  95 1.94  74 1.94  94 1.94  86 2.00  68 2.00  14 3.06  32 3.06
                            11 3.06  31 3.06
  24  0.333  0.667  0.000-  96 1.94  78 1.94  75 1.94  95 1.94  87 2.00  69 2.00  33 3.06  15 3.06
                            12 3.06  32 3.06
  25  0.667  0.000  0.000-  79 1.94  97 1.94  76 1.94  99 1.94  88 2.00  70 2.00  16 3.06  34 3.06
                            13 3.06  36 3.06
  26  0.667  0.333  0.000-  80 1.94  98 1.94  97 1.94  77 1.94  89 2.00  71 2.00  17 3.06  35 3.06
                            34 3.06  14 3.06
  27  0.667  0.667  0.000-  81 1.94  99 1.94  78 1.94  98 1.94  90 2.00  72 2.00  18 3.06  36 3.06
                            15 3.06  35 3.06
  28  0.000  0.167  0.250-  83 1.94  82 1.94 100 1.94 106 1.94  37 2.00  91 2.00   1 3.06  20 3.06
                            19 3.06   7 3.06
  29  0.000  0.500  0.250-  83 1.94 101 1.94  84 1.94 107 1.94  38 2.00  92 2.00  20 3.06   2 3.06
                             8 3.06  21 3.06
  30  0.000  0.833  0.250-  84 1.94 102 1.94  82 1.94 108 1.94  39 2.00  93 2.00  21 3.06   3 3.06
                             9 3.06  19 3.06
  31  0.333  0.167  0.250- 103 1.94  86 1.94  85 1.94 100 1.94  40 2.00  94 2.00   4 3.06   1 3.06
                            23 3.06  22 3.06
  32  0.333  0.500  0.250-  86 1.94 104 1.94 101 1.94  87 1.94  41 2.00  95 2.00  23 3.06   2 3.06
                            24 3.06   5 3.14
  33  0.333  0.833  0.250-  87 1.94 105 1.94 102 1.94  85 1.94  42 2.00  96 2.00  24 3.06   6 3.06
                             3 3.06  22 3.06
  34  0.667  0.167  0.250- 106 1.94  89 1.94  88 1.94 103 1.94  43 2.00  97 2.00   7 3.06  26 3.06
                            25 3.06   4 3.06
  35  0.667  0.500  0.250- 107 1.94  89 1.94  90 1.94 104 1.94  44 2.00  98 2.00   8 3.06  26 3.06
                            27 3.06   5 3.14
  36  0.667  0.833  0.250-  90 1.94 108 1.94  88 1.94 105 1.94  45 2.00  99 2.00   9 3.06  27 3.06
                            25 3.06   6 3.06
  37  0.000  0.167  0.458-   1 1.94   7 1.94  28 2.00
  38  0.000  0.500  0.458-   2 1.94   8 1.94  29 2.00
  39  0.000  0.833  0.458-   3 1.94   9 1.94  30 2.00
  40  0.333  0.167  0.458-   4 1.94   1 1.94  31 2.00
  41  0.333  0.500  0.458-   2 1.94   5 1.96  32 2.00
  42  0.333  0.833  0.458-   6 1.94   3 1.94  33 2.00
  43  0.667  0.167  0.458-   7 1.94   4 1.94  34 2.00
  44  0.667  0.500  0.458-   8 1.94   5 1.96  35 2.00
  45  0.667  0.833  0.458-   9 1.94   6 1.94  36 2.00
  46  0.167  0.167  0.708-  11 1.94  10 1.94   1 2.00
  47  0.167  0.500  0.708-  11 1.94  12 1.94   2 2.00
  48  0.167  0.833  0.708-  12 1.94  10 1.94   3 2.00
  49  0.500  0.167  0.708-  14 1.94  13 1.94   4 2.00
  50  0.500  0.500  0.708-   5 1.90  14 1.94  15 1.94
  51  0.500  0.833  0.708-  15 1.94  13 1.94   6 2.00
  52  0.833  0.167  0.708-  17 1.94  16 1.94   7 2.00
  53  0.833  0.500  0.708-  17 1.94  18 1.94   8 2.00
  54  0.833  0.833  0.708-  18 1.94  16 1.94   9 2.00
  55  0.167  0.000  0.542-   1 1.94   3 1.94  10 2.00
  56  0.167  0.333  0.542-   2 1.94   1 1.94  11 2.00
  57  0.167  0.667  0.542-   3 1.94   2 1.94  12 2.00
  58  0.500  0.000  0.542-   4 1.94   6 1.94  13 2.00
  59  0.500  0.333  0.542-   5 1.92   4 1.94  14 2.00
  60  0.500  0.667  0.542-   5 1.92   6 1.94  15 2.00
  61  0.833  0.000  0.542-   7 1.94   9 1.94  16 2.00
  62  0.833  0.333  0.542-   8 1.94   7 1.94  17 2.00
  63  0.833  0.667  0.542-   9 1.94   8 1.94  18 2.00
  64  0.000  0.000  0.792-  10 1.94  16 1.94  19 2.00
  65  0.000  0.333  0.792-  11 1.94  17 1.94  20 2.00
  66  0.000  0.667  0.792-  12 1.94  18 1.94  21 2.00
  67  0.333  0.000  0.792-  13 1.94  10 1.94  22 2.00
  68  0.333  0.333  0.792-  14 1.94  11 1.94  23 2.00
  69  0.333  0.667  0.792-  15 1.94  12 1.94  24 2.00
  70  0.667  0.000  0.792-  16 1.94  13 1.94  25 2.00
  71  0.667  0.333  0.792-  17 1.94  14 1.94  26 2.00
  72  0.667  0.667  0.792-  18 1.94  15 1.94  27 2.00
  73  0.167  0.000  0.958-  22 1.94  19 1.94  10 2.00
  74  0.167  0.333  0.958-  23 1.94  20 1.94  11 2.00
  75  0.167  0.667  0.958-  24 1.94  21 1.94  12 2.00
  76  0.500  0.000  0.958-  22 1.94  25 1.94  13 2.00
  77  0.500  0.333  0.958-  23 1.94  26 1.94  14 2.00
  78  0.500  0.667  0.958-  24 1.94  27 1.94  15 2.00
  79  0.833  0.000  0.958-  25 1.94  19 1.94  16 2.00
  80  0.833  0.333  0.958-  26 1.94  20 1.94  17 2.00
  81  0.833  0.667  0.958-  27 1.94  21 1.94  18 2.00
  82  0.000  0.000  0.208-  28 1.94  30 1.94  19 2.00
  83  0.000  0.333  0.208-  29 1.94  28 1.94  20 2.00
  84  0.000  0.667  0.208-  30 1.94  29 1.94  21 2.00
  85  0.333  0.000  0.208-  31 1.94  33 1.94  22 2.00
  86  0.333  0.333  0.208-  32 1.94  31 1.94  23 2.00
  87  0.333  0.667  0.208-  33 1.94  32 1.94  24 2.00
  88  0.667  0.000  0.208-  34 1.94  36 1.94  25 2.00
  89  0.667  0.333  0.208-  35 1.94  34 1.94  26 2.00
  90  0.667  0.667  0.208-  36 1.94  35 1.94  27 2.00
  91  0.000  0.167  0.042-  20 1.94  19 1.94  28 2.00
  92  0.000  0.500  0.042-  20 1.94  21 1.94  29 2.00
  93  0.000  0.833  0.042-  21 1.94  19 1.94  30 2.00
  94  0.333  0.167  0.042-  23 1.94  22 1.94  31 2.00
  95  0.333  0.500  0.042-  23 1.94  24 1.94  32 2.00
  96  0.333  0.833  0.042-  24 1.94  22 1.94  33 2.00
  97  0.667  0.167  0.042-  26 1.94  25 1.94  34 2.00
  98  0.667  0.500  0.042-  26 1.94  27 1.94  35 2.00
  99  0.667  0.833  0.042-  27 1.94  25 1.94  36 2.00
 100  0.167  0.167  0.292-  31 1.94  28 1.94   1 2.00
 101  0.167  0.500  0.292-  32 1.94  29 1.94   2 2.00
 102  0.167  0.833  0.292-  33 1.94  30 1.94   3 2.00
 103  0.500  0.167  0.292-  31 1.94  34 1.94   4 2.00
 104  0.500  0.500  0.292-  32 1.94  35 1.94   5 2.10
 105  0.500  0.833  0.292-  33 1.94  36 1.94   6 2.00
 106  0.833  0.167  0.292-  34 1.94  28 1.94   7 2.00
 107  0.833  0.500  0.292-  35 1.94  29 1.94   8 2.00
 108  0.833  0.833  0.292-  36 1.94  30 1.94   9 2.00


IMPORTANT INFORMATION: All symmetrisations will be switched off!
NOSYMM: (Re-)initialisation of all symmetry stuff for point group C_1.


----------------------------------------------------------------------------------------

                                     Primitive cell

  volume of cell :    1243.1447

  direct lattice vectors                    reciprocal lattice vectors
    11.376843452  0.000000000  0.000000000     0.087897843  0.000000000  0.000000000
     0.000000000 11.376843452  0.000000000     0.000000000  0.087897843  0.000000000
     0.000000000  0.000000000  9.604574204     0.000000000  0.000000000  0.104117057

  length of vectors
    11.376843452 11.376843452  9.604574204     0.087897843  0.087897843  0.104117057

  position of ions in fractional coordinates (direct lattice)
     0.166666672  0.166666672  0.500000000
     0.166666672  0.500000000  0.500000000
     0.166666672  0.833333313  0.500000000
     0.500000000  0.166666672  0.500000000
     0.500000000  0.500000000  0.510411706
     0.500000000  0.833333313  0.500000000
     0.833333313  0.166666672  0.500000000
     0.833333313  0.500000000  0.500000000
     0.833333313  0.833333313  0.500000000
     0.166666672  0.000000000  0.750000000
     0.166666672  0.333333343  0.750000000
     0.166666672  0.666666687  0.750000000
     0.500000000  0.000000000  0.750000000
     0.500000000  0.333333343  0.750000000
     0.500000000  0.666666687  0.750000000
     0.833333313  0.000000000  0.750000000
     0.833333313  0.333333343  0.750000000
     0.833333313  0.666666687  0.750000000
     0.000000000  0.000000000  0.000000000
     0.000000000  0.333333343  0.000000000
     0.000000000  0.666666687  0.000000000
     0.333333343  0.000000000  0.000000000
     0.333333343  0.333333343  0.000000000
     0.333333343  0.666666687  0.000000000
     0.666666687  0.000000000  0.000000000
     0.666666687  0.333333343  0.000000000
     0.666666687  0.666666687  0.000000000
     0.000000000  0.166666672  0.250000000
     0.000000000  0.500000000  0.250000000
     0.000000000  0.833333313  0.250000000
     0.333333343  0.166666672  0.250000000
     0.333333343  0.500000000  0.250000000
     0.333333343  0.833333313  0.250000000
     0.666666687  0.166666672  0.250000000
     0.666666687  0.500000000  0.250000000
     0.666666687  0.833333313  0.250000000
     0.000000000  0.166666672  0.457898587
     0.000000000  0.500000000  0.457898587
     0.000000000  0.833333313  0.457898587
     0.333333343  0.166666672  0.457898587
     0.333333343  0.500000000  0.457898587
     0.333333343  0.833333313  0.457898587
     0.666666687  0.166666672  0.457898587
     0.666666687  0.500000000  0.457898587
     0.666666687  0.833333313  0.457898587
     0.166666672  0.166666672  0.707898617
     0.166666672  0.500000000  0.707898617
     0.166666672  0.833333313  0.707898617
     0.500000000  0.166666672  0.707898617
     0.500000000  0.500000000  0.707898617
     0.500000000  0.833333313  0.707898617
     0.833333313  0.166666672  0.707898617
     0.833333313  0.500000000  0.707898617
     0.833333313  0.833333313  0.707898617
     0.166666672  0.000000000  0.542101383
     0.166666672  0.333333343  0.542101383
     0.166666672  0.666666687  0.542101383
     0.500000000  0.000000000  0.542101383
     0.500000000  0.333333343  0.542101383
     0.500000000  0.666666687  0.542101383
     0.833333313  0.000000000  0.542101383
     0.833333313  0.333333343  0.542101383
     0.833333313  0.666666687  0.542101383
     0.000000000  0.000000000  0.792101383
     0.000000000  0.333333343  0.792101383
     0.000000000  0.666666687  0.792101383
     0.333333343  0.000000000  0.792101383
     0.333333343  0.333333343  0.792101383
     0.333333343  0.666666687  0.792101383
     0.666666687  0.000000000  0.792101383
     0.666666687  0.333333343  0.792101383
     0.666666687  0.666666687  0.792101383
     0.166666672  0.000000000  0.957898617
     0.166666672  0.333333343  0.957898617
     0.166666672  0.666666687  0.957898617
     0.500000000  0.000000000  0.957898617
     0.500000000  0.333333343  0.957898617
     0.500000000  0.666666687  0.957898617
     0.833333313  0.000000000  0.957898617
     0.833333313  0.333333343  0.957898617
     0.833333313  0.666666687  0.957898617
     0.000000000  0.000000000  0.207898602
     0.000000000  0.333333343  0.207898602
     0.000000000  0.666666687  0.207898602
     0.333333343  0.000000000  0.207898602
     0.333333343  0.333333343  0.207898602
     0.333333343  0.666666687  0.207898602
     0.666666687  0.000000000  0.207898602
     0.666666687  0.333333343  0.207898602
     0.666666687  0.666666687  0.207898602
     0.000000000  0.166666672  0.042101406
     0.000000000  0.500000000  0.042101406
     0.000000000  0.833333313  0.042101406
     0.333333343  0.166666672  0.042101406
     0.333333343  0.500000000  0.042101406
     0.333333343  0.833333313  0.042101406
     0.666666687  0.166666672  0.042101406
     0.666666687  0.500000000  0.042101406
     0.666666687  0.833333313  0.042101406
     0.166666672  0.166666672  0.292101413
     0.166666672  0.500000000  0.292101413
     0.166666672  0.833333313  0.292101413
     0.500000000  0.166666672  0.292101413
     0.500000000  0.500000000  0.292101413
     0.500000000  0.833333313  0.292101413
     0.833333313  0.166666672  0.292101413
     0.833333313  0.500000000  0.292101413
     0.833333313  0.833333313  0.292101413

  ion indices of the primitive-cell ions
   primitive index   ion index
                 1           1
                 2           2
                 3           3
                 4           4
                 5           5
                 6           6
                 7           7
                 8           8
                 9           9
                10          10
                11          11
                12          12
                13          13
                14          14
                15          15
                16          16
                17          17
                18          18
                19          19
                20          20
                21          21
                22          22
                23          23
                24          24
                25          25
                26          26
                27          27
                28          28
                29          29
                30          30
                31          31
                32          32
                33          33
                34          34
                35          35
                36          36
                37          37
                38          38
                39          39
                40          40
                41          41
                42          42
                43          43
                44          44
                45          45
                46          46
                47          47
                48          48
                49          49
                50          50
                51          51
                52          52
                53          53
                54          54
                55          55
                56          56
                57          57
                58          58
                59          59
                60          60
                61          61
                62          62
                63          63
                64          64
                65          65
                66          66
                67          67
                68          68
                69          69
                70          70
                71          71
                72          72
                73          73
                74          74
                75          75
                76          76
                77          77
                78          78
                79          79
                80          80
                81          81
                82          82
                83          83
                84          84
                85          85
                86          86
                87          87
                88          88
                89          89
                90          90
                91          91
                92          92
                93          93
                94          94
                95          95
                96          96
                97          97
                98          98
                99          99
               100         100
               101         101
               102         102
               103         103
               104         104
               105         105
               106         106
               107         107
               108         108

----------------------------------------------------------------------------------------



 KPOINTS: K-Points

Automatic generation of k-mesh.
 Grid dimensions read from file:
 generate k-points for:    2    2    2

 Generating k-lattice:

  Cartesian coordinates                     Fractional coordinates (reciprocal lattice)
     0.043948922  0.000000000  0.000000000     0.500000000  0.000000000  0.000000000
     0.000000000  0.043948922  0.000000000     0.000000000  0.500000000  0.000000000
     0.000000000  0.000000000  0.052058529     0.000000000  0.000000000  0.500000000

  Length of vectors
     0.043948922  0.043948922  0.052058529

  Shift w.r.t. Gamma in fractional coordinates (k-lattice)
     0.500000000  0.500000000  0.500000000


 Subroutine IBZKPT returns following result:
 ===========================================

 Found      4 irreducible k-points:

 Following reciprocal coordinates:
            Coordinates               Weight
  0.250000  0.250000  0.250000      2.000000
 -0.250000  0.250000  0.250000      2.000000
 -0.250000 -0.250000  0.250000      2.000000
  0.250000 -0.250000  0.250000      2.000000

 Following cartesian coordinates:
            Coordinates               Weight
  0.021974  0.021974  0.026029      2.000000
 -0.021974  0.021974  0.026029      2.000000
 -0.021974 -0.021974  0.026029      2.000000
  0.021974 -0.021974  0.026029      2.000000


 Subroutine IBZKPT_HF returns following result:
 ==============================================

 Found      8 k-points in 1st BZ
 the following      8 k-points will be used (e.g. in the exchange kernel)
 Following reciprocal coordinates:   # in IRBZ
  0.250000  0.250000  0.250000    0.12500000   1 t-inv F
 -0.250000  0.250000  0.250000    0.12500000   2 t-inv F
 -0.250000 -0.250000  0.250000    0.12500000   3 t-inv F
  0.250000 -0.250000  0.250000    0.12500000   4 t-inv F
 -0.250000 -0.250000 -0.250000    0.12500000   1 t-inv T
  0.250000 -0.250000 -0.250000    0.12500000   2 t-inv T
  0.250000  0.250000 -0.250000    0.12500000   3 t-inv T
 -0.250000  0.250000 -0.250000    0.12500000   4 t-inv T


--------------------------------------------------------------------------------------------------------




 Dimension of arrays:
   k-points           NKPTS =      4   k-points in BZ     NKDIM =      4   number of bands    NBANDS=    476
   number of dos      NEDOS =    301   number of ions     NIONS =    108
   non local maximal  LDIM  =      6   non local SUM 2l+1 LMDIM =     18
   total plane-waves  NPLWV = 150528
   max r-space proj   IRMAX =   1791   max aug-charges    IRDMAX=   4900
   dimension x,y,z NGX =    56 NGY =   56 NGZ =   48
   dimension x,y,z NGXF=   112 NGYF=  112 NGZF=   96
   support grid    NGXF=   112 NGYF=  112 NGZF=   96
   ions per type =              36  72
   NGX,Y,Z   is equivalent  to a cutoff of   8.18,  8.18,  8.31 a.u.
   NGXF,Y,Z  is equivalent  to a cutoff of  16.37, 16.37, 16.62 a.u.

 SYSTEM =  unknown system
 POSCAR =  Ti4 O8

 Startparameter for this run:
   NWRITE =      2    write-flag & timer
   PREC   = normal    normal or accurate (medium, high low for compatibility)
   ISTART =      0    job   : 0-new  1-cont  2-samecut
   ICHARG =      2    charge: 1-file 2-atom 10-const
   ISPIN  =      1    spin polarized calculation?
   LNONCOLLINEAR =      F non collinear calculations
   LSORBIT =      F    spin-orbit coupling
   INIWAV =      1    electr: 0-lowe 1-rand  2-diag
   LASPH  =      F    aspherical Exc in radial PAW
 Electronic Relaxation 1
   ENCUT  =  400.0 eV  29.40 Ry    5.42 a.u.  18.55 18.55 15.66*2*pi/ulx,y,z
   ENINI  =  400.0     initial cutoff
   ENAUG  =  605.4 eV  augmentation charge cutoff
   NELM   =     80;   NELMIN=  4; NELMDL= -5     # of ELM steps
   EDIFF  = 0.1E-06   stopping-criterion for ELM
   LREAL  =      T    real-space projection
   NLSPLINE    = F    spline interpolate recip. space projectors
   LCOMPAT=      F    compatible to vasp.4.4
   GGA_COMPAT  = T    GGA compatible to vasp.4.4-vasp.4.6
   LMAXPAW     = -100 max onsite density
   LMAXMIX     =    2 max onsite mixed and CHGCAR
   VOSKOWN=      0    Vosko Wilk Nusair interpolation
   ROPT   =   -0.00050  -0.00050
 Ionic relaxation
   EDIFFG = 0.1E-05   stopping-criterion for IOM
   NSW    =      0    number of steps for IOM
   NBLOCK =      1;   KBLOCK =      1    inner block; outer block
   IBRION =     -1    ionic relax: 0-MD 1-quasi-New 2-CG
   NFREE  =      0    steps in history (QN), initial steepest desc. (CG)
   ISIF   =      2    stress and relaxation
   IWAVPR =     10    prediction:  0-non 1-charg 2-wave 3-comb
   ISYM   =      0    0-nonsym 1-usesym 2-fastsym
   LCORR  =      T    Harris-Foulkes like correction to forces

   POTIM  = 0.5000    time-step for ionic-motion
   TEIN   =    0.0    initial temperature
   TEBEG  =    0.0;   TEEND  =   0.0 temperature during run
   SMASS  =  -3.00    Nose mass-parameter (am)
   estimated Nose-frequenzy (Omega)   =  0.10E-29 period in steps = 0.13E+47 mass=  -0.296E-26a.u.
   SCALEE = 1.0000    scale energy and forces
   NPACO  =    256;   APACO  = 10.0  distance and # of slots for P.C.
   PSTRESS=    0.0 pullay stress

  Mass of Ions in am
   POMASS =  47.88 16.00
  Ionic Valenz
   ZVAL   =  10.00  6.00
  Atomic Wigner-Seitz radii
   RWIGS  =  -1.00 -1.00
  virtual crystal weights
   VCA    =   1.00  1.00
   NELECT =     792.0000    total number of electrons
   NUPDOWN=      -1.0000    fix difference up-down

 DOS related values:
   EMIN   =  10.00;   EMAX   =-10.00  energy-range for DOS
   EFERMI =   0.00
   ISMEAR =     0;   SIGMA  =   0.10  broadening in eV -4-tet -1-fermi 0-gaus

 Electronic relaxation 2 (details)
   IALGO  =     38    algorithm
   LDIAG  =      T    sub-space diagonalisation (order eigenvalues)
   LSUBROT=      F    optimize rotation matrix (better conditioning)
   TURBO    =      0    0=normal 1=particle mesh
   IRESTART =      0    0=no restart 2=restart with 2 vectors
   NREBOOT  =      0    no. of reboots
   NMIN     =      0    reboot dimension
   EREF     =   0.00    reference energy to select bands
   IMIX   =      4    mixing-type and parameters
     AMIX     =   0.40;   BMIX     =  1.00
     AMIX_MAG =   1.60;   BMIX_MAG =  1.00
     AMIN     =   0.10
     WC   =   100.;   INIMIX=   1;  MIXPRE=   1;  MAXMIX= -45

 Intra band minimization:
   WEIMIN = 0.0000     energy-eigenvalue tresh-hold
   EBREAK =  0.53E-10  absolut break condition
   DEPER  =   0.30     relativ break condition

   TIME   =   0.40     timestep for ELM

  volume/ion in A,a.u.               =      11.51        77.68
  Fermi-wavevector in a.u.,A,eV,Ry     =   1.408670  2.662001 26.998745  1.984352
  Thomas-Fermi vector in A             =   2.530804

 Write flags
   LWAVE        =      F    write WAVECAR
   LDOWNSAMPLE  =      F    k-point downsampling of WAVECAR
   LCHARG       =      F    write CHGCAR
   LVTOT        =      F    write LOCPOT, total local potential
   LVHAR        =      F    write LOCPOT, Hartree potential only
   LELF         =      F    write electronic localiz. function (ELF)
   LORBIT       =      0    0 simple, 1 ext, 2 COOP (PROOUT), +10 PAW based schemes


 Dipole corrections
   LMONO  =      F    monopole corrections only (constant potential shift)
   LDIPOL =      F    correct potential (dipole corrections)
   IDIPOL =      0    1-x, 2-y, 3-z, 4-all directions
   EPSILON=  1.0000000 bulk dielectric constant

 Exchange correlation treatment:
   GGA     =    --    GGA type
   LEXCH   =     8    internal setting for exchange type
   LIBXC   =     F    Libxc
   VOSKOWN =     0    Vosko Wilk Nusair interpolation
   LHFCALC =     F    Hartree Fock is set to
   LHFONE  =     F    Hartree Fock one center treatment
   AEXX    =    0.0000 exact exchange contribution

 Linear response parameters
   LEPSILON=     T    determine dielectric tensor
   LRPA    =     F    only Hartree local field effects (RPA)
   LNABLA  =     F    use nabla operator in PAW spheres
   LVEL    =     F    velocity operator in full k-point grid
   CSHIFT  =0.1000    complex shift for real part using Kramers Kronig
   OMEGAMAX=  -1.0    maximum frequency
   DEG_THRESHOLD= 0.2000000E-02 threshold for treating states as degnerate
   RTIME   =   -0.100 relaxation time in fs
  (WPLASMAI=    0.000 imaginary part of plasma frequency in eV, 0.658/RTIME)
   DFIELD  = 0.0000000 0.0000000 0.0000000 field for delta impulse in time

  Optional k-point grid parameters
   LKPOINTS_OPT  =     F    use optional k-point grid
   KPOINTS_OPT_MODE=     1    mode for optional k-point grid

 Orbital magnetization related:
   ORBITALMAG=     F  switch on orbital magnetization
   LCHIMAG   =     F  perturbation theory with respect to B field
   DQ        =  0.001000  dq finite difference perturbation B field
   LLRAUG    =     F  two centre corrections for induced B field

 PEAD related settings:
   LPEAD      =     T    switch on PEAD
   IPEAD      =     4    finite difference order for dpsi/dk
   LCALCPOL   =     F    calculate macroscopic polarization
   LCALCEPS   =     F    calculate dielectric tensor
   EFIELD_PEAD=    0.0000    0.0000    0.0000
   SKIP_EDOTP =     F
   LRPA       =     F
   SKIP_SCF   =     F


--------------------------------------------------------------------------------------------------------


 Static calculation
 charge density and potential will be updated during run
 non-spin polarized calculation
 Variant of blocked Davidson
 Davidson routine will perform the subspace rotation
 perform sub-space diagonalisation
    after iterative eigenvector-optimisation
 modified Broyden-mixing scheme, WC =      100.0
 initial mixing is a Kerker type mixing with AMIX =  0.4000 and BMIX =      1.0000
 Hartree-type preconditioning will be used
 using additional bands           80
 real space projection scheme for non local part
 use partial core corrections
 calculate Harris-corrections to forces
   (improved forces if not selfconsistent)
 use gradient corrections
 use of overlap-Matrix (Vanderbilt PP)
 Gauss-broadening in eV      SIGMA  =   0.10


--------------------------------------------------------------------------------------------------------


  energy-cutoff  :      400.00
  volume of cell :     1243.14
      direct lattice vectors                 reciprocal lattice vectors
    11.376843452  0.000000000  0.000000000     0.087897843  0.000000000  0.000000000
     0.000000000 11.376843452  0.000000000     0.000000000  0.087897843  0.000000000
     0.000000000  0.000000000  9.604574204     0.000000000  0.000000000  0.104117057

  length of vectors
    11.376843452 11.376843452  9.604574204     0.087897843  0.087897843  0.104117057



 k-points in units of 2pi/SCALE and weight: K-Points
   0.02197446  0.02197446  0.02602926       0.250
  -0.02197446  0.02197446  0.02602926       0.250
  -0.02197446 -0.02197446  0.02602926       0.250
   0.02197446 -0.02197446  0.02602926       0.250

 k-points in reciprocal lattice and weights: K-Points
   0.25000000  0.25000000  0.25000000       0.250
  -0.25000000  0.25000000  0.25000000       0.250
  -0.25000000 -0.25000000  0.25000000       0.250
   0.25000000 -0.25000000  0.25000000       0.250

 position of ions in fractional coordinates (direct lattice)
   0.16666667  0.16666667  0.50000000
   0.16666667  0.50000000  0.50000000
   0.16666667  0.83333331  0.50000000
   0.50000000  0.16666667  0.50000000
   0.50000000  0.50000000  0.51041171
   0.50000000  0.83333331  0.50000000
   0.83333331  0.16666667  0.50000000
   0.83333331  0.50000000  0.50000000
   0.83333331  0.83333331  0.50000000
   0.16666667  0.00000000  0.75000000
   0.16666667  0.33333334  0.75000000
   0.16666667  0.66666669  0.75000000
   0.50000000  0.00000000  0.75000000
   0.50000000  0.33333334  0.75000000
   0.50000000  0.66666669  0.75000000
   0.83333331  0.00000000  0.75000000
   0.83333331  0.33333334  0.75000000
   0.83333331  0.66666669  0.75000000
   0.00000000  0.00000000  0.00000000
   0.00000000  0.33333334  0.00000000
   0.00000000  0.66666669  0.00000000
   0.33333334  0.00000000  0.00000000
   0.33333334  0.33333334  0.00000000
   0.33333334  0.66666669  0.00000000
   0.66666669  0.00000000  0.00000000
   0.66666669  0.33333334  0.00000000
   0.66666669  0.66666669  0.00000000
   0.00000000  0.16666667  0.25000000
   0.00000000  0.50000000  0.25000000
   0.00000000  0.83333331  0.25000000
   0.33333334  0.16666667  0.25000000
   0.33333334  0.50000000  0.25000000
   0.33333334  0.83333331  0.25000000
   0.66666669  0.16666667  0.25000000
   0.66666669  0.50000000  0.25000000
   0.66666669  0.83333331  0.25000000
   0.00000000  0.16666667  0.45789859
   0.00000000  0.50000000  0.45789859
   0.00000000  0.83333331  0.45789859
   0.33333334  0.16666667  0.45789859
   0.33333334  0.50000000  0.45789859
   0.33333334  0.83333331  0.45789859
   0.66666669  0.16666667  0.45789859
   0.66666669  0.50000000  0.45789859
   0.66666669  0.83333331  0.45789859
   0.16666667  0.16666667  0.70789862
   0.16666667  0.50000000  0.70789862
   0.16666667  0.83333331  0.70789862
   0.50000000  0.16666667  0.70789862
   0.50000000  0.50000000  0.70789862
   0.50000000  0.83333331  0.70789862
   0.83333331  0.16666667  0.70789862
   0.83333331  0.50000000  0.70789862
   0.83333331  0.83333331  0.70789862
   0.16666667  0.00000000  0.54210138
   0.16666667  0.33333334  0.54210138
   0.16666667  0.66666669  0.54210138
   0.50000000  0.00000000  0.54210138
   0.50000000  0.33333334  0.54210138
   0.50000000  0.66666669  0.54210138
   0.83333331  0.00000000  0.54210138
   0.83333331  0.33333334  0.54210138
   0.83333331  0.66666669  0.54210138
   0.00000000  0.00000000  0.79210138
   0.00000000  0.33333334  0.79210138
   0.00000000  0.66666669  0.79210138
   0.33333334  0.00000000  0.79210138
   0.33333334  0.33333334  0.79210138
   0.33333334  0.66666669  0.79210138
   0.66666669  0.00000000  0.79210138
   0.66666669  0.33333334  0.79210138
   0.66666669  0.66666669  0.79210138
   0.16666667  0.00000000  0.95789862
   0.16666667  0.33333334  0.95789862
   0.16666667  0.66666669  0.95789862
   0.50000000  0.00000000  0.95789862
   0.50000000  0.33333334  0.95789862
   0.50000000  0.66666669  0.95789862
   0.83333331  0.00000000  0.95789862
   0.83333331  0.33333334  0.95789862
   0.83333331  0.66666669  0.95789862
   0.00000000  0.00000000  0.20789860
   0.00000000  0.33333334  0.20789860
   0.00000000  0.66666669  0.20789860
   0.33333334  0.00000000  0.20789860
   0.33333334  0.33333334  0.20789860
   0.33333334  0.66666669  0.20789860
   0.66666669  0.00000000  0.20789860
   0.66666669  0.33333334  0.20789860
   0.66666669  0.66666669  0.20789860
   0.00000000  0.16666667  0.04210141
   0.00000000  0.50000000  0.04210141
   0.00000000  0.83333331  0.04210141
   0.33333334  0.16666667  0.04210141
   0.33333334  0.50000000  0.04210141
   0.33333334  0.83333331  0.04210141
   0.66666669  0.16666667  0.04210141
   0.66666669  0.50000000  0.04210141
   0.66666669  0.83333331  0.04210141
   0.16666667  0.16666667  0.29210141
   0.16666667  0.50000000  0.29210141
   0.16666667  0.83333331  0.29210141
   0.50000000  0.16666667  0.29210141
   0.50000000  0.50000000  0.29210141
   0.50000000  0.83333331  0.29210141
   0.83333331  0.16666667  0.29210141
   0.83333331  0.50000000  0.29210141
   0.83333331  0.83333331  0.29210141

 position of ions in cartesian coordinates  (Angst):
   1.89614063  1.89614063  4.80228710
   1.89614063  5.68842173  4.80228710
   1.89614063  9.48070265  4.80228710
   5.68842173  1.89614063  4.80228710
   5.68842173  5.68842173  4.90228710
   5.68842173  9.48070265  4.80228710
   9.48070265  1.89614063  4.80228710
   9.48070265  5.68842173  4.80228710
   9.48070265  9.48070265  4.80228710
   1.89614063  0.00000000  7.20343065
   1.89614063  3.79228126  7.20343065
   1.89614063  7.58456253  7.20343065
   5.68842173  0.00000000  7.20343065
   5.68842173  3.79228126  7.20343065
   5.68842173  7.58456253  7.20343065
   9.48070265  0.00000000  7.20343065
   9.48070265  3.79228126  7.20343065
   9.48070265  7.58456253  7.20343065
   0.00000000  0.00000000  0.00000000
   0.00000000  3.79228126  0.00000000
   0.00000000  7.58456253  0.00000000
   3.79228126  0.00000000  0.00000000
   3.79228126  3.79228126  0.00000000
   3.79228126  7.58456253  0.00000000
   7.58456253  0.00000000  0.00000000
   7.58456253  3.79228126  0.00000000
   7.58456253  7.58456253  0.00000000
   0.00000000  1.89614063  2.40114355
   0.00000000  5.68842173  2.40114355
   0.00000000  9.48070265  2.40114355
   3.79228126  1.89614063  2.40114355
   3.79228126  5.68842173  2.40114355
   3.79228126  9.48070265  2.40114355
   7.58456253  1.89614063  2.40114355
   7.58456253  5.68842173  2.40114355
   7.58456253  9.48070265  2.40114355
   0.00000000  1.89614063  4.39792096
   0.00000000  5.68842173  4.39792096
   0.00000000  9.48070265  4.39792096
   3.79228126  1.89614063  4.39792096
   3.79228126  5.68842173  4.39792096
   3.79228126  9.48070265  4.39792096
   7.58456253  1.89614063  4.39792096
   7.58456253  5.68842173  4.39792096
   7.58456253  9.48070265  4.39792096
   1.89614063  1.89614063  6.79906479
   1.89614063  5.68842173  6.79906479
   1.89614063  9.48070265  6.79906479
   5.68842173  1.89614063  6.79906479
   5.68842173  5.68842173  6.79906479
   5.68842173  9.48070265  6.79906479
   9.48070265  1.89614063  6.79906479
   9.48070265  5.68842173  6.79906479
   9.48070265  9.48070265  6.79906479
   1.89614063  0.00000000  5.20665296
   1.89614063  3.79228126  5.20665296
   1.89614063  7.58456253  5.20665296
   5.68842173  0.00000000  5.20665296
   5.68842173  3.79228126  5.20665296
   5.68842173  7.58456253  5.20665296
   9.48070265  0.00000000  5.20665296
   9.48070265  3.79228126  5.20665296
   9.48070265  7.58456253  5.20665296
   0.00000000  0.00000000  7.60779651
   0.00000000  3.79228126  7.60779651
   0.00000000  7.58456253  7.60779651
   3.79228126  0.00000000  7.60779651
   3.79228126  3.79228126  7.60779651
   3.79228126  7.58456253  7.60779651
   7.58456253  0.00000000  7.60779651
   7.58456253  3.79228126  7.60779651
   7.58456253  7.58456253  7.60779651
   1.89614063  0.00000000  9.20020834
   1.89614063  3.79228126  9.20020834
   1.89614063  7.58456253  9.20020834
   5.68842173  0.00000000  9.20020834
   5.68842173  3.79228126  9.20020834
   5.68842173  7.58456253  9.20020834
   9.48070265  0.00000000  9.20020834
   9.48070265  3.79228126  9.20020834
   9.48070265  7.58456253  9.20020834
   0.00000000  0.00000000  1.99677755
   0.00000000  3.79228126  1.99677755
   0.00000000  7.58456253  1.99677755
   3.79228126  0.00000000  1.99677755
   3.79228126  3.79228126  1.99677755
   3.79228126  7.58456253  1.99677755
   7.58456253  0.00000000  1.99677755
   7.58456253  3.79228126  1.99677755
   7.58456253  7.58456253  1.99677755
   0.00000000  1.89614063  0.40436607
   0.00000000  5.68842173  0.40436607
   0.00000000  9.48070265  0.40436607
   3.79228126  1.89614063  0.40436607
   3.79228126  5.68842173  0.40436607
   3.79228126  9.48070265  0.40436607
   7.58456253  1.89614063  0.40436607
   7.58456253  5.68842173  0.40436607
   7.58456253  9.48070265  0.40436607
   1.89614063  1.89614063  2.80550970
   1.89614063  5.68842173  2.80550970
   1.89614063  9.48070265  2.80550970
   5.68842173  1.89614063  2.80550970
   5.68842173  5.68842173  2.80550970
   5.68842173  9.48070265  2.80550970
   9.48070265  1.89614063  2.80550970
   9.48070265  5.68842173  2.80550970
   9.48070265  9.48070265  2.80550970



--------------------------------------------------------------------------------------------------------


 k-point   1 :   0.2500 0.2500 0.2500  plane waves:   22590
 k-point   2 :  -0.2500 0.2500 0.2500  plane waves:   22590
 k-point   3 :  -0.2500-0.2500 0.2500  plane waves:   22590
 k-point   4 :   0.2500-0.2500 0.2500  plane waves:   22590

 maximum and minimum number of plane-waves per node :     22590    22590

 maximum number of plane-waves:     22590
 maximum index in each direction:
   IXMAX=   18   IYMAX=   18   IZMAX=   15
   IXMIN=  -18   IYMIN=  -18   IZMIN=  -15


 serial   3D FFT for wavefunctions
 parallel 3D FFT for charge:
    minimum data exchange during FFTs selected (reduces bandwidth)


 total amount of memory used by VASP MPI-rank0   266716. kBytes
=======================================================================

   base      :      30000. kBytes
   nonlr-proj:      19547. kBytes
   fftplans  :      10927. kBytes
   grid      :      23181. kBytes
   one-center:       1679. kBytes
   wavefun   :     181382. kBytes

     INWAV:  cpu time      0.0000: real time      0.0004
 Broyden mixing: mesh for mixing (old mesh)
   NGX = 37   NGY = 37   NGZ = 31
  (NGX  =112   NGY  =112   NGZ  = 96)
  gives a total of  42439 points

 initial charge density was supplied:
 charge density of overlapping atoms calculated
 number of electron     792.0000000 magnetization
 keeping initial charge density in first step


--------------------------------------------------------------------------------------------------------


 Maximum index for non-local projection operator         1743
 Maximum index for augmentation-charges         1189 (set IRDMAX)


--------------------------------------------------------------------------------------------------------


 First call to EWALD:  gamma=   0.165
 Maximum number of real-space cells 3x 3x 3
 Maximum number of reciprocal cells 3x 3x 3

    FEWALD:  cpu time      0.0232: real time      0.0235


--------------------------------------- Iteration      1(   1)  ---------------------------------------


    POTLOK:  cpu time      0.1444: real time      0.1457
    SETDIJ:  cpu time      0.0378: real time      0.0381
     EDDAV:  cpu time     11.2030: real time     11.2605
       DOS:  cpu time      0.0027: real time      0.0027
    --------------------------------------------
      LOOP:  cpu time     11.3879: real time     11.4471

 eigenvalue-minimisations  :  3824
 total energy-change (2. order) : 0.1156007E+05  (-0.3305537E+05)
 number of electron     792.0000000 magnetization
 augmentation part      792.0000000 magnetization

 Free energy of the ion-electron system (eV)
  ---------------------------------------------------
  alpha Z        PSCENC =      3563.47650690
  Ewald energy   TEWEN  =    -48587.19155161
  -Hartree energ DENC   =    -18842.19620638
  -exchange      EXHF   =         0.00000000
  -V(xc)+E(xc)   XCENC  =      3286.86667849
  PAW double counting   =     54431.09303398   -54537.79254336
  entropy T*S    EENTRO =        -0.15737580
  eigenvalues    EBANDS =      3589.57530964
  atomic energy  EATOM  =     68656.39924158
  Solvation  Ediel_sol  =         0.00000000
  ---------------------------------------------------
  free energy    TOTEN  =     11560.07309344 eV

  energy without entropy =    11560.23046924  energy(sigma->0) =    11560.15178134


--------------------------------------------------------------------------------------------------------




--------------------------------------- Iteration      1(   2)  ---------------------------------------


     EDDAV:  cpu time     11.1136: real time     11.1740
       DOS:  cpu time      0.0008: real time      0.0008
    --------------------------------------------
      LOOP:  cpu time     11.1144: real time     11.1748

 eigenvalue-minimisations  :  3808
 total energy-change (2. order) :-0.9987028E+04  (-0.9557068E+04)
 number of electron     792.0000000 magnetization
 augmentation part      792.0000000 magnetization

 Free energy of the ion-electron system (eV)
  ---------------------------------------------------
  alpha Z        PSCENC =      3563.47650690
  Ewald energy   TEWEN  =    -48587.19155161
  -Hartree energ DENC   =    -18842.19620638
  -exchange      EXHF   =         0.00000000
  -V(xc)+E(xc)   XCENC  =      3286.86667849
  PAW double counting   =     54431.09303398   -54537.79254336
  entropy T*S    EENTRO =        -0.28186487
  eigenvalues    EBANDS =     -6397.32867939
  atomic energy  EATOM  =     68656.39924158
  Solvation  Ediel_sol  =         0.00000000
  ---------------------------------------------------
  free energy    TOTEN  =      1573.04461534 eV

  energy without entropy =     1573.32648021  energy(sigma->0) =     1573.18554777


--------------------------------------------------------------------------------------------------------




--------------------------------------- Iteration      1(   3)  ---------------------------------------


     EDDAV:  cpu time     12.6065: real time     12.6714
       DOS:  cpu time      0.0007: real time      0.0007
    --------------------------------------------
      LOOP:  cpu time     12.6072: real time     12.6721

 eigenvalue-minimisations  :  4408
 total energy-change (2. order) :-0.2641289E+04  (-0.2569916E+04)
 number of electron     792.0000000 magnetization
 augmentation part      792.0000000 magnetization

 Free energy of the ion-electron system (eV)
  ---------------------------------------------------
  alpha Z        PSCENC =      3563.47650690
  Ewald energy   TEWEN  =    -48587.19155161
  -Hartree energ DENC   =    -18842.19620638
  -exchange      EXHF   =         0.00000000
  -V(xc)+E(xc)   XCENC  =      3286.86667849
  PAW double counting   =     54431.09303398   -54537.79254336
  entropy T*S    EENTRO =        -0.00000000
  eigenvalues    EBANDS =     -9038.89979002
  atomic energy  EATOM  =     68656.39924158
  Solvation  Ediel_sol  =         0.00000000
  ---------------------------------------------------
  free energy    TOTEN  =     -1068.24463042 eV

  energy without entropy =    -1068.24463042  energy(sigma->0) =    -1068.24463042


--------------------------------------------------------------------------------------------------------




--------------------------------------- Iteration      1(   4)  ---------------------------------------


     EDDAV:  cpu time     14.1316: real time     14.2029
       DOS:  cpu time      0.0004: real time      0.0004
    --------------------------------------------
      LOOP:  cpu time     14.1320: real time     14.2033

 eigenvalue-minimisations  :  5080
 total energy-change (2. order) :-0.2049706E+03  (-0.2038487E+03)
 number of electron     792.0000000 magnetization
 augmentation part      792.0000000 magnetization

 Free energy of the ion-electron system (eV)
  ---------------------------------------------------
  alpha Z        PSCENC =      3563.47650690
  Ewald energy   TEWEN  =    -48587.19155161
  -Hartree energ DENC   =    -18842.19620638
  -exchange      EXHF   =         0.00000000
  -V(xc)+E(xc)   XCENC  =      3286.86667849
  PAW double counting   =     54431.09303398   -54537.79254336
  entropy T*S    EENTRO =        -0.00000000
  eigenvalues    EBANDS =     -9243.87035005
  atomic energy  EATOM  =     68656.39924158
  Solvation  Ediel_sol  =         0.00000000
  ---------------------------------------------------
  free energy    TOTEN  =     -1273.21519045 eV

  energy without entropy =    -1273.21519045  energy(sigma->0) =    -1273.21519045


--------------------------------------------------------------------------------------------------------




--------------------------------------- Iteration      1(   5)  ---------------------------------------


     EDDAV:  cpu time     13.9358: real time     14.0082
       DOS:  cpu time      0.0005: real time      0.0005
    CHARGE:  cpu time      0.2088: real time      0.2112
    MIXING:  cpu time      0.0141: real time      0.0143
    --------------------------------------------
      LOOP:  cpu time     14.1592: real time     14.2343

 eigenvalue-minimisations  :  5000
 total energy-change (2. order) :-0.5413680E+01  (-0.5402998E+01)
 number of electron     792.0003054 magnetization
 augmentation part      202.2401714 magnetization

 Broyden mixing:
  rms(total) = 0.17246E+02    rms(broyden)= 0.17244E+02
  rms(prec ) = 0.19183E+02
  weight for this iteration     100.00

 Free energy of the ion-electron system (eV)
  ---------------------------------------------------
  alpha Z        PSCENC =      3563.47650690
  Ewald energy   TEWEN  =    -48587.19155161
  -Hartree energ DENC   =    -18842.19620638
  -exchange      EXHF   =         0.00000000
  -V(xc)+E(xc)   XCENC  =      3286.86667849
  PAW double counting   =     54431.09303398   -54537.79254336
  entropy T*S    EENTRO =        -0.00000000
  eigenvalues    EBANDS =     -9249.28403039
  atomic energy  EATOM  =     68656.39924158
  Solvation  Ediel_sol  =         0.00000000
  ---------------------------------------------------
  free energy    TOTEN  =     -1278.62887079 eV

  energy without entropy =    -1278.62887079  energy(sigma->0) =    -1278.62887079


--------------------------------------------------------------------------------------------------------




--------------------------------------- Iteration      1(   6)  ---------------------------------------


    POTLOK:  cpu time      0.1366: real time      0.1377
    SETDIJ:  cpu time      0.0458: real time      0.0461
     EDDAV:  cpu time     13.8886: real time     13.9609
       DOS:  cpu time      0.0005: real time      0.0006
    CHARGE:  cpu time      0.2038: real time      0.2063
    MIXING:  cpu time      0.0135: real time      0.0136
    --------------------------------------------
      LOOP:  cpu time     14.2889: real time     14.3653

 eigenvalue-minimisations  :  4976
 total energy-change (2. order) : 0.3022933E+03  (-0.1977048E+03)
 number of electron     792.0002460 magnetization
 augmentation part      214.1284886 magnetization

 Broyden mixing:
  rms(total) = 0.53120E+01    rms(broyden)= 0.53071E+01
  rms(prec ) = 0.58402E+01
  weight for this iteration     100.00

 eigenvalues of (default mixing * dielectric matrix)
  average eigenvalue GAMMA=   0.9651
  0.9651

 Free energy of the ion-electron system (eV)
  ---------------------------------------------------
  alpha Z        PSCENC =      3563.47650690
  Ewald energy   TEWEN  =    -48587.19155161
  -Hartree energ DENC   =    -19067.33315066
  -exchange      EXHF   =         0.00000000
  -V(xc)+E(xc)   XCENC  =      3337.90759666
  PAW double counting   =     68254.22506180   -68486.51334104
  entropy T*S    EENTRO =        -0.00000000
  eigenvalues    EBANDS =     -8647.30598027
  atomic energy  EATOM  =     68656.39924158
  Solvation  Ediel_sol  =         0.00000000
  ---------------------------------------------------
  free energy    TOTEN  =      -976.33561663 eV

  energy without entropy =     -976.33561663  energy(sigma->0) =     -976.33561663


--------------------------------------------------------------------------------------------------------




--------------------------------------- Iteration      1(   7)  ---------------------------------------


    POTLOK:  cpu time      0.1342: real time      0.1355
    SETDIJ:  cpu time      0.0460: real time      0.0462
     EDDAV:  cpu time     14.7003: real time     14.7750
       DOS:  cpu time      0.0004: real time      0.0004
    CHARGE:  cpu time      0.2047: real time      0.2071
    MIXING:  cpu time      0.0140: real time      0.0140
    --------------------------------------------
      LOOP:  cpu time     15.0995: real time     15.1783

 eigenvalue-minimisations  :  5336
 total energy-change (2. order) : 0.4307209E+01  (-0.2864709E+02)
 number of electron     792.0002651 magnetization
 augmentation part      207.3348767 magnetization

 Broyden mixing:
  rms(total) = 0.45996E+01    rms(broyden)= 0.45993E+01
  rms(prec ) = 0.47923E+01
  weight for this iteration     100.00

 eigenvalues of (default mixing * dielectric matrix)
  average eigenvalue GAMMA=   1.8468
  0.7376  2.9561

 Free energy of the ion-electron system (eV)
  ---------------------------------------------------
  alpha Z        PSCENC =      3563.47650690
  Ewald energy   TEWEN  =    -48587.19155161
  -Hartree energ DENC   =    -18910.20133103
  -exchange      EXHF   =         0.00000000
  -V(xc)+E(xc)   XCENC  =      3318.67490552
  PAW double counting   =     75255.08404308   -75498.35619382
  entropy T*S    EENTRO =        -0.00000000
  eigenvalues    EBANDS =     -8769.91402839
  atomic energy  EATOM  =     68656.39924158
  Solvation  Ediel_sol  =         0.00000000
  ---------------------------------------------------
  free energy    TOTEN  =      -972.02840778 eV

  energy without entropy =     -972.02840778  energy(sigma->0) =     -972.02840778


--------------------------------------------------------------------------------------------------------




--------------------------------------- Iteration      1(   8)  ---------------------------------------


    POTLOK:  cpu time      0.1315: real time      0.1329
    SETDIJ:  cpu time      0.0457: real time      0.0459
     EDDAV:  cpu time     14.1101: real time     14.1800
       DOS:  cpu time      0.0005: real time      0.0005
    CHARGE:  cpu time      0.2065: real time      0.2093
    MIXING:  cpu time      0.0151: real time      0.0152
    --------------------------------------------
      LOOP:  cpu time     14.5095: real time     14.5839

 eigenvalue-minimisations  :  5016
 total energy-change (2. order) :-0.9332747E-01  (-0.1106028E+02)
 number of electron     792.0002586 magnetization
 augmentation part      215.5765686 magnetization

 Broyden mixing:
  rms(total) = 0.33765E+01    rms(broyden)= 0.33763E+01
  rms(prec ) = 0.36742E+01
  weight for this iteration     100.00

 eigenvalues of (default mixing * dielectric matrix)
  average eigenvalue GAMMA=   1.2326
  2.1654  0.9321  0.6005

 Free energy of the ion-electron system (eV)
  ---------------------------------------------------
  alpha Z        PSCENC =      3563.47650690
  Ewald energy   TEWEN  =    -48587.19155161
  -Hartree energ DENC   =    -18532.01545753
  -exchange      EXHF   =         0.00000000
  -V(xc)+E(xc)   XCENC  =      3303.83618921
  PAW double counting   =     93911.05591092   -94226.75117206
  entropy T*S    EENTRO =        -0.00000000
  eigenvalues    EBANDS =     -9060.93140267
  atomic energy  EATOM  =     68656.39924158
  Solvation  Ediel_sol  =         0.00000000
  ---------------------------------------------------
  free energy    TOTEN  =      -972.12173526 eV

  energy without entropy =     -972.12173526  energy(sigma->0) =     -972.12173526


--------------------------------------------------------------------------------------------------------




--------------------------------------- Iteration      1(   9)  ---------------------------------------


    POTLOK:  cpu time      0.1357: real time      0.1372
    SETDIJ:  cpu time      0.0447: real time      0.0449
     EDDAV:  cpu time     14.0039: real time     14.0739
       DOS:  cpu time      0.0005: real time      0.0005
    CHARGE:  cpu time      0.2122: real time      0.2148
    MIXING:  cpu time      0.0146: real time      0.0147
    --------------------------------------------
      LOOP:  cpu time     14.4116: real time     14.4860

 eigenvalue-minimisations  :  5048
 total energy-change (2. order) : 0.5574382E+01  (-0.3478731E+01)
 number of electron     792.0002633 magnetization
 augmentation part      211.4580974 magnetization

 Broyden mixing:
  rms(total) = 0.24884E+00    rms(broyden)= 0.24809E+00
  rms(prec ) = 0.27358E+00
  weight for this iteration     100.00

 eigenvalues of (default mixing * dielectric matrix)
  average eigenvalue GAMMA=   1.2263
  2.1984  1.0414  1.0414  0.6239

 Free energy of the ion-electron system (eV)
  ---------------------------------------------------
  alpha Z        PSCENC =      3563.47650690
  Ewald energy   TEWEN  =    -48587.19155161
  -Hartree energ DENC   =    -18678.18485353
  -exchange      EXHF   =         0.00000000
  -V(xc)+E(xc)   XCENC  =      3308.80582272
  PAW double counting   =     88578.70601537   -88874.98138166
  entropy T*S    EENTRO =        -0.00000000
  eigenvalues    EBANDS =     -8933.57715276
  atomic energy  EATOM  =     68656.39924158
  Solvation  Ediel_sol  =         0.00000000
  ---------------------------------------------------
  free energy    TOTEN  =      -966.54735299 eV

  energy without entropy =     -966.54735299  energy(sigma->0) =     -966.54735299


--------------------------------------------------------------------------------------------------------




--------------------------------------- Iteration      1(  10)  ---------------------------------------


    POTLOK:  cpu time      0.1290: real time      0.1305
    SETDIJ:  cpu time      0.0508: real time      0.0511
     EDDAV:  cpu time     14.4428: real time     14.5151
       DOS:  cpu time      0.0004: real time      0.0004
    CHARGE:  cpu time      0.2080: real time      0.2103
    MIXING:  cpu time      0.0155: real time      0.0156
    --------------------------------------------
      LOOP:  cpu time     14.8467: real time     14.9231

 eigenvalue-minimisations  :  5216
 total energy-change (2. order) :-0.4955445E-01  (-0.9021812E-01)
 number of electron     792.0002624 magnetization
 augmentation part      211.5600284 magnetization

 Broyden mixing:
  rms(total) = 0.23012E+00    rms(broyden)= 0.23008E+00
  rms(prec ) = 0.25318E+00
  weight for this iteration     100.00

 eigenvalues of (default mixing * dielectric matrix)
  average eigenvalue GAMMA=   1.3213
  2.5218  1.8138  1.0322  0.6794  0.5594

 Free energy of the ion-electron system (eV)
  ---------------------------------------------------
  alpha Z        PSCENC =      3563.47650690
  Ewald energy   TEWEN  =    -48587.19155161
  -Hartree energ DENC   =    -18710.44512062
  -exchange      EXHF   =         0.00000000
  -V(xc)+E(xc)   XCENC  =      3311.18582695
  PAW double counting   =     88891.46186552   -89191.29448642
  entropy T*S    EENTRO =        -0.00000000
  eigenvalues    EBANDS =     -8900.18918974
  atomic energy  EATOM  =     68656.39924158
  Solvation  Ediel_sol  =         0.00000000
  ---------------------------------------------------
  free energy    TOTEN  =      -966.59690744 eV

  energy without entropy =     -966.59690744  energy(sigma->0) =     -966.59690744


--------------------------------------------------------------------------------------------------------




--------------------------------------- Iteration      1(  11)  ---------------------------------------


    POTLOK:  cpu time      0.1322: real time      0.1336
    SETDIJ:  cpu time      0.0459: real time      0.0461
     EDDAV:  cpu time     13.2720: real time     13.3376
       DOS:  cpu time      0.0005: real time      0.0005
    CHARGE:  cpu time      0.2024: real time      0.2040
    MIXING:  cpu time      0.0158: real time      0.0159
    --------------------------------------------
      LOOP:  cpu time     13.6688: real time     13.7377

 eigenvalue-minimisations  :  4688
 total energy-change (2. order) :-0.2375462E-01  (-0.1802953E-01)
 number of electron     792.0002620 magnetization
 augmentation part      211.4355027 magnetization

 Broyden mixing:
  rms(total) = 0.16365E+00    rms(broyden)= 0.16363E+00
  rms(prec ) = 0.19791E+00
  weight for this iteration     100.00

 eigenvalues of (default mixing * dielectric matrix)
  average eigenvalue GAMMA=   1.2819
  2.5273  1.8229  1.0674  1.0674  0.5841  0.6224

 Free energy of the ion-electron system (eV)
  ---------------------------------------------------
  alpha Z        PSCENC =      3563.47650690
  Ewald energy   TEWEN  =    -48587.19155161
  -Hartree energ DENC   =    -18741.59898071
  -exchange      EXHF   =         0.00000000
  -V(xc)+E(xc)   XCENC  =      3313.20408626
  PAW double counting   =     89221.65856029   -89524.44387156
  entropy T*S    EENTRO =        -0.00000000
  eigenvalues    EBANDS =     -8868.12465321
  atomic energy  EATOM  =     68656.39924158
  Solvation  Ediel_sol  =         0.00000000
  ---------------------------------------------------
  free energy    TOTEN  =      -966.62066206 eV

  energy without entropy =     -966.62066206  energy(sigma->0) =     -966.62066206


--------------------------------------------------------------------------------------------------------




--------------------------------------- Iteration      1(  12)  ---------------------------------------


    POTLOK:  cpu time      0.1295: real time      0.1303
    SETDIJ:  cpu time      0.0467: real time      0.0469
     EDDAV:  cpu time     14.6282: real time     14.6983
       DOS:  cpu time      0.0006: real time      0.0006
    CHARGE:  cpu time      0.2134: real time      0.2143
    MIXING:  cpu time      0.0160: real time      0.0160
    --------------------------------------------
      LOOP:  cpu time     15.0343: real time     15.1064

 eigenvalue-minimisations  :  5280
 total energy-change (2. order) : 0.3068012E-01  (-0.3181541E-01)
 number of electron     792.0002627 magnetization
 augmentation part      211.1791859 magnetization

 Broyden mixing:
  rms(total) = 0.55266E-01    rms(broyden)= 0.55179E-01
  rms(prec ) = 0.63538E-01
  weight for this iteration     100.00

 eigenvalues of (default mixing * dielectric matrix)
  average eigenvalue GAMMA=   1.2498
  2.5858  1.6293  1.6293  0.9918  0.7250  0.5935  0.5935

 Free energy of the ion-electron system (eV)
  ---------------------------------------------------
  alpha Z        PSCENC =      3563.47650690
  Ewald energy   TEWEN  =    -48587.19155161
  -Hartree energ DENC   =    -18738.57026250
  -exchange      EXHF   =         0.00000000
  -V(xc)+E(xc)   XCENC  =      3312.64484323
  PAW double counting   =     89221.09281154   -89522.91771079
  entropy T*S    EENTRO =        -0.00000000
  eigenvalues    EBANDS =     -8871.52386028
  atomic energy  EATOM  =     68656.39924158
  Solvation  Ediel_sol  =         0.00000000
  ---------------------------------------------------
  free energy    TOTEN  =      -966.58998194 eV

  energy without entropy =     -966.58998194  energy(sigma->0) =     -966.58998194


--------------------------------------------------------------------------------------------------------




--------------------------------------- Iteration      1(  13)  ---------------------------------------


    POTLOK:  cpu time      0.1358: real time      0.1371
    SETDIJ:  cpu time      0.0389: real time      0.0391
     EDDAV:  cpu time     14.6605: real time     14.7323
       DOS:  cpu time      0.0004: real time      0.0004
    CHARGE:  cpu time      0.2066: real time      0.2075
    MIXING:  cpu time      0.0164: real time      0.0165
    --------------------------------------------
      LOOP:  cpu time     15.0586: real time     15.1329

 eigenvalue-minimisations  :  5272
 total energy-change (2. order) : 0.7777497E-03  (-0.1538429E-02)
 number of electron     792.0002626 magnetization
 augmentation part      211.2283463 magnetization

 Broyden mixing:
  rms(total) = 0.22567E-01    rms(broyden)= 0.22559E-01
  rms(prec ) = 0.27254E-01
  weight for this iteration     100.00

 eigenvalues of (default mixing * dielectric matrix)
  average eigenvalue GAMMA=   1.2035
  2.5740  1.7156  1.7156  1.0013  0.7136  0.7136  0.5796  0.6149

 Free energy of the ion-electron system (eV)
  ---------------------------------------------------
  alpha Z        PSCENC =      3563.47650690
  Ewald energy   TEWEN  =    -48587.19155161
  -Hartree energ DENC   =    -18738.08562705
  -exchange      EXHF   =         0.00000000
  -V(xc)+E(xc)   XCENC  =      3312.65170519
  PAW double counting   =     89262.68091448   -89564.48940988
  entropy T*S    EENTRO =        -0.00000000
  eigenvalues    EBANDS =     -8872.03098380
  atomic energy  EATOM  =     68656.39924158
  Solvation  Ediel_sol  =         0.00000000
  ---------------------------------------------------
  free energy    TOTEN  =      -966.58920419 eV

  energy without entropy =     -966.58920419  energy(sigma->0) =     -966.58920419


--------------------------------------------------------------------------------------------------------




--------------------------------------- Iteration      1(  14)  ---------------------------------------


    POTLOK:  cpu time      0.1341: real time      0.1355
    SETDIJ:  cpu time      0.0434: real time      0.0435
     EDDAV:  cpu time     14.6418: real time     14.7116
       DOS:  cpu time      0.0024: real time      0.0024
    CHARGE:  cpu time      0.2223: real time      0.2234
    MIXING:  cpu time      0.0165: real time      0.0166
    --------------------------------------------
      LOOP:  cpu time     15.0605: real time     15.1330

 eigenvalue-minimisations  :  5304
 total energy-change (2. order) : 0.1479032E-03  (-0.9608398E-04)
 number of electron     792.0002626 magnetization
 augmentation part      211.2249881 magnetization

 Broyden mixing:
  rms(total) = 0.16929E-01    rms(broyden)= 0.16928E-01
  rms(prec ) = 0.20198E-01
  weight for this iteration     100.00

 eigenvalues of (default mixing * dielectric matrix)
  average eigenvalue GAMMA=   1.2531
  2.5184  1.9880  1.9880  1.0299  0.9805  0.9805  0.6508  0.5711  0.5711

 Free energy of the ion-electron system (eV)
  ---------------------------------------------------
  alpha Z        PSCENC =      3563.47650690
  Ewald energy   TEWEN  =    -48587.19155161
  -Hartree energ DENC   =    -18739.34486864
  -exchange      EXHF   =         0.00000000
  -V(xc)+E(xc)   XCENC  =      3312.72405326
  PAW double counting   =     89244.45347449   -89546.15767492
  entropy T*S    EENTRO =        -0.00000000
  eigenvalues    EBANDS =     -8870.94823735
  atomic energy  EATOM  =     68656.39924158
  Solvation  Ediel_sol  =         0.00000000
  ---------------------------------------------------
  free energy    TOTEN  =      -966.58905629 eV

  energy without entropy =     -966.58905629  energy(sigma->0) =     -966.58905629


--------------------------------------------------------------------------------------------------------




--------------------------------------- Iteration      1(  15)  ---------------------------------------


    POTLOK:  cpu time      0.1298: real time      0.1312
    SETDIJ:  cpu time      0.0488: real time      0.0490
     EDDAV:  cpu time     14.5755: real time     14.6432
       DOS:  cpu time      0.0023: real time      0.0023
    CHARGE:  cpu time      0.2167: real time      0.2177
    MIXING:  cpu time      0.0173: real time      0.0174
    --------------------------------------------
      LOOP:  cpu time     14.9904: real time     15.0607

 eigenvalue-minimisations  :  5272
 total energy-change (2. order) :-0.7751922E-05  (-0.1321188E-03)
 number of electron     792.0002626 magnetization
 augmentation part      211.2306841 magnetization

 Broyden mixing:
  rms(total) = 0.89088E-02    rms(broyden)= 0.89047E-02
  rms(prec ) = 0.10775E-01
  weight for this iteration     100.00

 eigenvalues of (default mixing * dielectric matrix)
  average eigenvalue GAMMA=   1.2363
  2.6800  2.3018  2.0960  0.9223  0.9223  0.8558  0.8558  0.5892  0.5892  0.5505

 Free energy of the ion-electron system (eV)
  ---------------------------------------------------
  alpha Z        PSCENC =      3563.47650690
  Ewald energy   TEWEN  =    -48587.19155161
  -Hartree energ DENC   =    -18740.65291170
  -exchange      EXHF   =         0.00000000
  -V(xc)+E(xc)   XCENC  =      3312.79737761
  PAW double counting   =     89226.35768862   -89527.88828636
  entropy T*S    EENTRO =        -0.00000000
  eigenvalues    EBANDS =     -8869.88712908
  atomic energy  EATOM  =     68656.39924158
  Solvation  Ediel_sol  =         0.00000000
  ---------------------------------------------------
  free energy    TOTEN  =      -966.58906404 eV

  energy without entropy =     -966.58906404  energy(sigma->0) =     -966.58906404


--------------------------------------------------------------------------------------------------------




--------------------------------------- Iteration      1(  16)  ---------------------------------------


    POTLOK:  cpu time      0.1273: real time      0.1286
    SETDIJ:  cpu time      0.0498: real time      0.0501
     EDDAV:  cpu time     14.5301: real time     14.6066
       DOS:  cpu time      0.0026: real time      0.0026
    CHARGE:  cpu time      0.2152: real time      0.2164
    MIXING:  cpu time      0.0174: real time      0.0175
    --------------------------------------------
      LOOP:  cpu time     14.9423: real time     15.0217

 eigenvalue-minimisations  :  5264
 total energy-change (2. order) : 0.5627479E-04  (-0.8100683E-04)
 number of electron     792.0002626 magnetization
 augmentation part      211.2442843 magnetization

 Broyden mixing:
  rms(total) = 0.47880E-02    rms(broyden)= 0.47844E-02
  rms(prec ) = 0.54939E-02
  weight for this iteration     100.00

 eigenvalues of (default mixing * dielectric matrix)
  average eigenvalue GAMMA=   1.2191
  2.7732  2.4221  1.9191  0.8821  0.8821  0.9957  0.9957  0.8069  0.6053  0.6053
  0.5230

 Free energy of the ion-electron system (eV)
  ---------------------------------------------------
  alpha Z        PSCENC =      3563.47650690
  Ewald energy   TEWEN  =    -48587.19155161
  -Hartree energ DENC   =    -18741.08238751
  -exchange      EXHF   =         0.00000000
  -V(xc)+E(xc)   XCENC  =      3312.83429757
  PAW double counting   =     89229.34542115   -89530.85784364
  entropy T*S    EENTRO =        -0.00000000
  eigenvalues    EBANDS =     -8869.51269220
  atomic energy  EATOM  =     68656.39924158
  Solvation  Ediel_sol  =         0.00000000
  ---------------------------------------------------
  free energy    TOTEN  =      -966.58900776 eV

  energy without entropy =     -966.58900776  energy(sigma->0) =     -966.58900776


--------------------------------------------------------------------------------------------------------




--------------------------------------- Iteration      1(  17)  ---------------------------------------


    POTLOK:  cpu time      0.1315: real time      0.1329
    SETDIJ:  cpu time      0.0478: real time      0.0480
     EDDAV:  cpu time     14.6160: real time     14.6834
       DOS:  cpu time      0.0026: real time      0.0027
    CHARGE:  cpu time      0.2107: real time      0.2116
    MIXING:  cpu time      0.0178: real time      0.0179
    --------------------------------------------
      LOOP:  cpu time     15.0265: real time     15.0965

 eigenvalue-minimisations  :  5280
 total energy-change (2. order) : 0.3415917E-06  (-0.1872916E-04)
 number of electron     792.0002626 magnetization
 augmentation part      211.2419510 magnetization

 Broyden mixing:
  rms(total) = 0.26737E-02    rms(broyden)= 0.26713E-02
  rms(prec ) = 0.32540E-02
  weight for this iteration     100.00

 eigenvalues of (default mixing * dielectric matrix)
  average eigenvalue GAMMA=   1.1753
  2.8822  2.3836  1.9182  1.0605  1.0605  0.8876  0.8876  0.6453  0.6453  0.6237
  0.5548  0.5548

 Free energy of the ion-electron system (eV)
  ---------------------------------------------------
  alpha Z        PSCENC =      3563.47650690
  Ewald energy   TEWEN  =    -48587.19155161
  -Hartree energ DENC   =    -18741.36649677
  -exchange      EXHF   =         0.00000000
  -V(xc)+E(xc)   XCENC  =      3312.84928871
  PAW double counting   =     89226.18826929   -89527.70367458
  entropy T*S    EENTRO =        -0.00000000
  eigenvalues    EBANDS =     -8869.24059094
  atomic energy  EATOM  =     68656.39924158
  Solvation  Ediel_sol  =         0.00000000
  ---------------------------------------------------
  free energy    TOTEN  =      -966.58900742 eV

  energy without entropy =     -966.58900742  energy(sigma->0) =     -966.58900742


--------------------------------------------------------------------------------------------------------




--------------------------------------- Iteration      1(  18)  ---------------------------------------


    POTLOK:  cpu time      0.1312: real time      0.1326
    SETDIJ:  cpu time      0.0467: real time      0.0469
     EDDAV:  cpu time     14.5042: real time     14.5727
       DOS:  cpu time      0.0025: real time      0.0025
    CHARGE:  cpu time      0.2115: real time      0.2125
    MIXING:  cpu time      0.0186: real time      0.0187
    --------------------------------------------
      LOOP:  cpu time     14.9148: real time     14.9859

 eigenvalue-minimisations  :  5264
 total energy-change (2. order) :-0.2437591E-05  (-0.1969588E-05)
 number of electron     792.0002626 magnetization
 augmentation part      211.2426838 magnetization

 Broyden mixing:
  rms(total) = 0.28632E-02    rms(broyden)= 0.28631E-02
  rms(prec ) = 0.33980E-02
  weight for this iteration     100.00

 eigenvalues of (default mixing * dielectric matrix)
  average eigenvalue GAMMA=   1.1694
  2.9297  2.3613  1.8845  1.2149  1.1136  0.9086  0.9086  0.7881  0.7881  0.6568
  0.5818  0.5818  0.4847

 Free energy of the ion-electron system (eV)
  ---------------------------------------------------
  alpha Z        PSCENC =      3563.47650690
  Ewald energy   TEWEN  =    -48587.19155161
  -Hartree energ DENC   =    -18741.37717938
  -exchange      EXHF   =         0.00000000
  -V(xc)+E(xc)   XCENC  =      3312.84920815
  PAW double counting   =     89227.09667138   -89528.61763216
[...]
      7.58456      3.79228      1.99678    -0.01185  0.01956 -2.89868 ( -0.63471  6.00000)
      7.58456      7.58456      1.99678    -0.01184 -0.01957 -2.89869 ( -0.63471  6.00000)
      0.00000      1.89614      0.40437    -0.00000 -0.00119 -2.89453 ( -0.63484  6.00000)
      0.00000      5.68842      0.40437     0.00001 -0.00001 -2.89744 ( -0.63483  6.00000)
      0.00000      9.48070      0.40437     0.00001  0.00113 -2.89454 ( -0.63484  6.00000)
      3.79228      1.89614      0.40437     0.00280 -0.00230 -2.88888 ( -0.63486  6.00000)
      3.79228      5.68842      0.40437     0.00752 -0.00000 -2.88329 ( -0.63495  6.00000)
      3.79228      9.48070      0.40437     0.00279  0.00228 -2.88888 ( -0.63486  6.00000)
      7.58456      1.89614      0.40437    -0.00279 -0.00227 -2.88886 ( -0.63486  6.00000)
      7.58456      5.68842      0.40437    -0.00751 -0.00000 -2.88326 ( -0.63495  6.00000)
      7.58456      9.48070      0.40437    -0.00279  0.00225 -2.88888 ( -0.63486  6.00000)
      1.89614      1.89614      2.80551     0.00450  0.00056 -2.90058 ( -0.63483  6.00000)
      1.89614      5.68842      2.80551    -0.01620 -0.00000 -2.89806 ( -0.63486  6.00000)
      1.89614      9.48070      2.80551     0.00449 -0.00056 -2.90057 ( -0.63483  6.00000)
      5.68842      1.89614      2.80551     0.00000  0.00296 -2.90955 ( -0.63475  6.00000)
      5.68842      5.68842      2.80551    -0.00002  0.00001 -2.69128 ( -0.63112  6.00000)
      5.68842      9.48070      2.80551     0.00000 -0.00296 -2.90956 ( -0.63475  6.00000)
      9.48070      1.89614      2.80551    -0.00450  0.00057 -2.90058 ( -0.63483  6.00000)
      9.48070      5.68842      2.80551     0.01621  0.00001 -2.89807 ( -0.63486  6.00000)
      9.48070      9.48070      2.80551    -0.00450 -0.00057 -2.90058 ( -0.63483  6.00000)
 -----------------------------------------------------------------------------------------
    total drift (improves with k-points):  -0.00007 -0.00003 -0.06838




--------------------------------------------------------------------------------------------------------




 MACROSCOPIC STATIC DIELECTRIC TENSOR (including local field effects in DFT)
 ------------------------------------------------------
           6.979299     0.000001     0.000005
           0.000000     6.938652     0.000005
           0.000002    -0.000002     6.371084
 ------------------------------------------------------



--------------------------------------------------------------------------------------------------------




--------------------------------------------------------------------------------------------------------




 MACROSCOPIC STATIC DIELECTRIC TENSOR (including local field effects in DFT)
 ------------------------------------------------------
           6.979299     0.000001     0.000005
           0.000000     6.938652     0.000005
           0.000002    -0.000002     6.371084
 ------------------------------------------------------


 PIEZOELECTRIC TENSOR (including local field effects)  for field in x, y, z        (e  Angst)
          XX          YY          ZZ          XY          YZ          ZX
  --------------------------------------------------------------------------------
  x    -0.00012    -0.00021     0.00044     0.00006     0.00006     0.06709
  y    -0.00040     0.00047     0.00028     0.00028     0.07283     0.00011
  z     0.68812     0.54866    -0.12851    -0.00011     0.00005     0.00002

 PIEZOELECTRIC TENSOR (including local field effects)  for field in x, y, z        (C/m^2)
          XX          YY          ZZ          XY          YZ          ZX
  --------------------------------------------------------------------------------
  x    -0.00000    -0.00000     0.00001     0.00000     0.00000     0.00086
  y    -0.00001     0.00001     0.00000     0.00000     0.00094     0.00000
  z     0.00887     0.00707    -0.00166    -0.00000     0.00000     0.00000

 BORN EFFECTIVE CHARGES (including local field effects) (in |e|, cummulative output)
 ---------------------------------------------------------------------------------
 ion    1
    1     6.67744     0.00324     0.00039
    2    -0.00356     6.64315    -0.00039
    3     0.00868     0.00769     5.78807
 ion    2
    1     6.68687    -0.00000    -0.00049
    2    -0.00001     6.65401    -0.00003
    3     0.02158     0.00001     5.75916
 ion    3
    1     6.67749    -0.00323     0.00043
    2     0.00357     6.64316     0.00037
    3     0.00869    -0.00769     5.78805
 ion    4
    1     6.66174     0.00001    -0.00004
    2    -0.00001     6.61397     0.00108
    3     0.00000     0.02431     5.80904
 ion    5
    1     6.29554    -0.00001     0.00003
    2     0.00001     6.96134     0.00000
    3     0.00008     0.00002     5.77982
 ion    6
    1     6.66169    -0.00001     0.00003
    2    -0.00000     6.61397    -0.00107
    3     0.00003    -0.02433     5.80903
 ion    7
    1     6.67747    -0.00324    -0.00045
    2     0.00357     6.64315    -0.00041
    3    -0.00867     0.00768     5.78807
 ion    8
    1     6.68682     0.00000     0.00045
    2    -0.00003     6.65403    -0.00001
    3    -0.02160    -0.00001     5.75921
 ion    9
    1     6.67747     0.00322    -0.00039
    2    -0.00356     6.64317     0.00039
    3    -0.00866    -0.00766     5.78805
 ion   10
    1     6.67226     0.00001     0.00005
    2    -0.00000     6.64980    -0.00000
    3     0.00092     0.00002     5.78727
 ion   11
    1     6.68281     0.00456    -0.00007
    2    -0.03081     6.68072     0.00061
    3    -0.02205     0.00266     5.78912
 ion   12
    1     6.68286    -0.00455    -0.00005
    2     0.03082     6.68068    -0.00061
    3    -0.02199    -0.00263     5.78913
 ion   13
    1     6.65797    -0.00002     0.00006
    2    -0.00002     6.62710    -0.00007
    3     0.00000     0.00001     5.78606
 ion   14
    1     6.68268     0.00002     0.00001
    2     0.00001     6.41698     0.00921
    3    -0.00001    -0.03340     5.78456
 ion   15
    1     6.68267    -0.00003     0.00003
    2     0.00001     6.41702    -0.00931
    3    -0.00001     0.03338     5.78457
 ion   16
    1     6.67228    -0.00007     0.00001
    2     0.00001     6.64982    -0.00002
    3    -0.00093    -0.00003     5.78727
 ion   17
    1     6.68278    -0.00457     0.00007
    2     0.03082     6.68065     0.00056
    3     0.02203     0.00269     5.78911
 ion   18
    1     6.68280     0.00459     0.00007
    2    -0.03087     6.68068    -0.00059
    3     0.02206    -0.00267     5.78914
 ion   19
    1     6.66143     0.00004     0.00001
    2     0.00003     6.65255     0.00003
    3    -0.00001     0.00002     5.78720
 ion   20
    1     6.66865     0.00001     0.00002
    2     0.00001     6.67420    -0.00012
    3    -0.00002    -0.00116     5.79798
 ion   21
    1     6.66866     0.00006     0.00001
    2     0.00001     6.67421     0.00020
    3     0.00001     0.00119     5.79799
 ion   22
    1     6.64717     0.00005    -0.00005
    2    -0.00003     6.65177     0.00004
    3    -0.00050    -0.00000     5.77584
 ion   23
    1     6.61827     0.01491    -0.00164
    2    -0.01513     6.70316     0.00141
    3    -0.01547    -0.01642     5.78346
 ion   24
    1     6.61832    -0.01490    -0.00159
    2     0.01514     6.70318    -0.00135
    3    -0.01543     0.01643     5.78345
 ion   25
    1     6.64717    -0.00001    -0.00001
    2     0.00002     6.65177    -0.00000
    3     0.00048    -0.00001     5.77581
 ion   26
    1     6.61825    -0.01489     0.00164
    2     0.01518     6.70319     0.00137
    3     0.01543    -0.01645     5.78345
 ion   27
    1     6.61826     0.01491     0.00166
    2    -0.01513     6.70318    -0.00137
    3     0.01546     0.01646     5.78346
 ion   28
    1     6.67047    -0.00000    -0.00003
    2    -0.00002     6.64912    -0.00000
    3    -0.00000    -0.00003     5.78743
 ion   29
    1     6.69460    -0.00000     0.00001
    2    -0.00001     6.65431     0.00005
    3    -0.00003     0.00002     5.78561
 ion   30
    1     6.67046     0.00001     0.00001
    2     0.00002     6.64916     0.00006
    3     0.00000     0.00005     5.78743
 ion   31
    1     6.64179     0.02952    -0.00042
    2    -0.00458     6.63785     0.00002
    3     0.00281    -0.02501     5.78915
 ion   32
    1     6.88064     0.00001    -0.00927
    2     0.00001     6.62870    -0.00000
    3    -0.06539    -0.00000     5.78534
 ion   33
    1     6.64180    -0.02952    -0.00043
    2     0.00458     6.63784     0.00001
    3     0.00283     0.02503     5.78914
 ion   34
    1     6.64181    -0.02951     0.00041
    2     0.00459     6.63782     0.00003
    3    -0.00282    -0.02502     5.78912
 ion   35
    1     6.88064     0.00002     0.00926
    2     0.00001     6.62869     0.00001
    3     0.06540    -0.00001     5.78528
 ion   36
    1     6.64182     0.02953     0.00039
    2    -0.00458     6.63786    -0.00002
    3    -0.00284     0.02507     5.78913
 ion   37
    1    -5.54794    -0.00000     0.00005
    2     0.00000    -1.11943     0.00201
    3    -0.00000    -0.00073    -2.89590
 ion   38
    1    -5.57459     0.00003     0.00000
    2     0.00003    -1.12819    -0.00001
    3     0.00002    -0.00001    -2.89172
 ion   39
    1    -5.54796    -0.00003    -0.00001
    2    -0.00001    -1.11944    -0.00199
    3    -0.00001     0.00074    -2.89589
 ion   40
    1    -5.54659    -0.00320    -0.00884
    2     0.01012    -1.12119     0.00293
    3    -0.00720    -0.00175    -2.89630
 ion   41
    1    -5.40861     0.00001     0.00673
    2    -0.00001    -1.13046     0.00001
    3    -0.05576    -0.00000    -2.90807
 ion   42
    1    -5.54654     0.00320    -0.00885
    2    -0.01012    -1.12118    -0.00293
    3    -0.00723     0.00175    -2.89630
 ion   43
    1    -5.54658     0.00319     0.00889
    2    -0.01013    -1.12118     0.00292
    3     0.00720    -0.00174    -2.89629
 ion   44
    1    -5.40858    -0.00001    -0.00668
    2     0.00000    -1.13045     0.00000
    3     0.05571    -0.00000    -2.90804
 ion   45
    1    -5.54656    -0.00318     0.00886
    2     0.01013    -1.12118    -0.00291
    3     0.00722     0.00173    -2.89628
 ion   46
    1    -1.12898     0.00042    -0.00022
    2     0.00105    -5.52841    -0.00060
    3     0.00019     0.00496    -2.88843
 ion   47
    1    -1.13310    -0.00000    -0.00069
    2     0.00002    -5.57574     0.00004
    3     0.00316     0.00000    -2.87889
 ion   48
    1    -1.12898    -0.00045    -0.00022
    2    -0.00106    -5.52841     0.00058
    3     0.00019    -0.00499    -2.88841
 ion   49
    1    -1.11423    -0.00002     0.00001
    2    -0.00004    -5.47210     0.00321
    3     0.00001    -0.01500    -2.89308
 ion   50
    1    -1.05458    -0.00002    -0.00003
    2    -0.00001    -5.24870     0.00003
    3    -0.00004     0.00002    -3.08344
 ion   51
    1    -1.11421    -0.00000     0.00002
    2     0.00002    -5.47210    -0.00315
    3     0.00000     0.01500    -2.89308
 ion   52
    1    -1.12899    -0.00042     0.00024
    2    -0.00103    -5.52841    -0.00055
    3    -0.00020     0.00497    -2.88843
 ion   53
    1    -1.13312    -0.00001     0.00071
    2    -0.00000    -5.57572     0.00000
    3    -0.00314    -0.00002    -2.87889
 ion   54
    1    -1.12898     0.00043     0.00023
    2     0.00105    -5.52840     0.00058
    3    -0.00020    -0.00495    -2.88842
 ion   55
    1    -1.12725     0.00001     0.00194
    2     0.00001    -5.52791    -0.00000
    3    -0.00080    -0.00001    -2.89230
 ion   56
    1    -1.12415    -0.00952     0.00241
    2     0.00346    -5.52488    -0.00992
    3    -0.00149    -0.00518    -2.89359
 ion   57
    1    -1.12416     0.00953     0.00240
    2    -0.00349    -5.52489     0.00992
    3    -0.00154     0.00517    -2.89361
 ion   58
    1    -1.11744     0.00000    -0.00001
    2    -0.00000    -5.49602     0.00003
    3     0.00000    -0.00000    -2.89472
 ion   59
    1    -1.11836     0.00004     0.00001
    2     0.00002    -5.60902    -0.01481
    3     0.00002    -0.06206    -2.87158
 ion   60
    1    -1.11837    -0.00001    -0.00001
    2    -0.00002    -5.60903     0.01484
    3     0.00003     0.06209    -2.87160
 ion   61
    1    -1.12725     0.00003    -0.00197
    2    -0.00001    -5.52794    -0.00001
    3     0.00082     0.00002    -2.89231
 ion   62
    1    -1.12415     0.00951    -0.00242
    2    -0.00348    -5.52489    -0.00987
    3     0.00151    -0.00517    -2.89359
 ion   63
    1    -1.12415    -0.00948    -0.00243
    2     0.00351    -5.52488     0.00991
    3     0.00151     0.00517    -2.89357
 ion   64
    1    -5.54487    -0.00002    -0.00002
    2    -0.00000    -1.12073     0.00000
    3     0.00001    -0.00001    -2.89262
 ion   65
    1    -5.54785     0.00000    -0.00002
    2     0.00001    -1.12532    -0.00374
    3    -0.00001    -0.00101    -2.89628
 ion   66
    1    -5.54788    -0.00001    -0.00001
    2     0.00001    -1.12531     0.00373
    3    -0.00003     0.00100    -2.89630
 ion   67
    1    -5.54179    -0.00000     0.00551
    2     0.00001    -1.12181     0.00002
    3    -0.00593     0.00002    -2.88689
 ion   68
    1    -5.55780    -0.00714     0.02792
    2     0.06849    -1.11927    -0.01663
    3     0.01193     0.00943    -2.88541
 ion   69
    1    -5.55781     0.00712     0.02787
    2    -0.06850    -1.11926     0.01663
    3     0.01190    -0.00944    -2.88543
 ion   70
    1    -5.54178    -0.00001    -0.00556
    2     0.00001    -1.12179     0.00000
    3     0.00590    -0.00000    -2.88688
 ion   71
    1    -5.55781     0.00712    -0.02792
    2    -0.06849    -1.11927    -0.01661
    3    -0.01194     0.00944    -2.88542
 ion   72
    1    -5.55780    -0.00713    -0.02794
    2     0.06852    -1.11929     0.01662
    3    -0.01194    -0.00944    -2.88542
 ion   73
    1    -5.53970     0.00000    -0.00032
    2    -0.00002    -1.12032    -0.00001
    3    -0.00058    -0.00001    -2.89369
 ion   74
    1    -5.54483    -0.00119    -0.00045
    2     0.00829    -1.12662    -0.00524
    3    -0.00240     0.00273    -2.89900
 ion   75
    1    -5.54485     0.00118    -0.00047
    2    -0.00833    -1.12663     0.00524
    3    -0.00243    -0.00273    -2.89900
 ion   76
    1    -5.51403     0.00001     0.00001
    2     0.00001    -1.11900    -0.00000
    3     0.00000    -0.00003    -2.88915
 ion   77
    1    -5.46606     0.00000     0.00001
    2    -0.00002    -1.12066    -0.03056
    3     0.00002     0.00750    -2.89988
 ion   78
    1    -5.46606     0.00002    -0.00003
    2    -0.00001    -1.12065     0.03055
    3    -0.00002    -0.00750    -2.89988
 ion   79
    1    -5.53968     0.00005     0.00033
    2    -0.00002    -1.12033     0.00000
    3     0.00060     0.00001    -2.89371
 ion   80
    1    -5.54481     0.00119     0.00046
    2    -0.00835    -1.12664    -0.00524
    3     0.00241     0.00269    -2.89899
 ion   81
    1    -5.54481    -0.00118     0.00045
    2     0.00832    -1.12662     0.00524
    3     0.00240    -0.00269    -2.89901
 ion   82
    1    -1.12388    -0.00002     0.00000
    2    -0.00001    -5.53072    -0.00002
    3     0.00001    -0.00002    -2.89372
 ion   83
    1    -1.12343     0.00000    -0.00000
    2    -0.00001    -5.53094     0.00533
    3     0.00002    -0.00581    -2.90016
 ion   84
    1    -1.12341     0.00001     0.00001
    2    -0.00000    -5.53094    -0.00542
    3     0.00000     0.00577    -2.90014
 ion   85
    1    -1.12167     0.00001    -0.00358
    2     0.00003    -5.52799    -0.00002
    3    -0.00100    -0.00002    -2.89154
 ion   86
    1    -1.12624    -0.06605    -0.01432
    2     0.00718    -5.51189     0.02746
    3     0.01185     0.01953    -2.89806
 ion   87
    1    -1.12625     0.06605    -0.01435
    2    -0.00719    -5.51187    -0.02751
    3     0.01185    -0.01954    -2.89806
 ion   88
    1    -1.12167     0.00001     0.00358
    2    -0.00000    -5.52796    -0.00001
    3     0.00101    -0.00002    -2.89153
 ion   89
    1    -1.12626     0.06606     0.01432
    2    -0.00716    -5.51187     0.02750
    3    -0.01185     0.01956    -2.89804
 ion   90
    1    -1.12626    -0.06606     0.01431
    2     0.00720    -5.51193    -0.02748
    3    -0.01184    -0.01957    -2.89806
 ion   91
    1    -1.12459    -0.00002     0.00001
    2     0.00001    -5.53406    -0.00044
    3    -0.00000    -0.00119    -2.89390
 ion   92
    1    -1.12597    -0.00002    -0.00001
    2     0.00002    -5.56092    -0.00003
    3     0.00001    -0.00001    -2.89681
 ion   93
    1    -1.12460    -0.00003    -0.00002
    2    -0.00002    -5.53405     0.00038
    3     0.00001     0.00113    -2.89391
 ion   94
    1    -1.12034    -0.00830    -0.00485
    2     0.00135    -5.52955    -0.00062
    3     0.00280    -0.00230    -2.88825
 ion   95
    1    -1.12664    -0.00001    -0.02952
    2     0.00000    -5.60885    -0.00000
    3     0.00752    -0.00000    -2.88265
 ion   96
    1    -1.12032     0.00828    -0.00485
    2    -0.00136    -5.52951     0.00055
    3     0.00279     0.00228    -2.88824
 ion   97
    1    -1.12032     0.00829     0.00482
    2    -0.00139    -5.52952    -0.00057
    3    -0.00279    -0.00227    -2.88823
 ion   98
    1    -1.12663     0.00000     0.02951
    2    -0.00005    -5.60888    -0.00004
    3    -0.00751    -0.00000    -2.88263
 ion   99
    1    -1.12034    -0.00829     0.00484
    2     0.00137    -5.52956     0.00061
    3    -0.00279     0.00225    -2.88825
 ion  100
    1    -5.54570    -0.00113    -0.00071
    2    -0.00063    -1.11806    -0.00016
    3     0.00450     0.00056    -2.89995
 ion  101
    1    -5.59907    -0.00001     0.00143
    2     0.00001    -1.12875    -0.00001
    3    -0.01620    -0.00000    -2.89743
 ion  102
    1    -5.54567     0.00111    -0.00069
    2     0.00063    -1.11807     0.00016
    3     0.00449    -0.00056    -2.89994
 ion  103
    1    -5.50105    -0.00002     0.00002
    2    -0.00001    -1.11378     0.00028
    3     0.00001     0.00296    -2.90892
 ion  104
    1    -5.81538    -0.00002    -0.00002
    2    -0.00001    -1.17397    -0.00001
    3    -0.00001     0.00001    -2.69065
 ion  105
    1    -5.50099     0.00000     0.00001
    2     0.00001    -1.11377    -0.00026
    3     0.00000    -0.00296    -2.90893
 ion  106
    1    -5.54571     0.00113     0.00072
    2     0.00065    -1.11806    -0.00014
    3    -0.00450     0.00057    -2.89995
 ion  107
    1    -5.59909    -0.00002    -0.00142
    2    -0.00001    -1.12875     0.00000
    3     0.01621     0.00001    -2.89743
 ion  108
    1    -5.54571    -0.00114     0.00067
    2    -0.00065    -1.11806     0.00012
    3    -0.00450    -0.00057    -2.89995


--------------------------------------------------------------------------------------------------------


     LOOP+:  cpu time   2697.5476: real time   2727.7082
    4ORBIT:  cpu time      0.0000: real time      0.0000

 total amount of memory used by VASP MPI-rank0   266716. kBytes
=======================================================================

   base      :      30000. kBytes
   nonlr-proj:      19547. kBytes
   fftplans  :      10927. kBytes
   grid      :      23181. kBytes
   one-center:       1679. kBytes
   wavefun   :     181382. kBytes



 General timing and accounting informations for this job:
 ========================================================

                  Total CPU time used (sec):     2706.272
                            User time (sec):     2649.578
                          System time (sec):       56.694
                         Elapsed time (sec):     2745.129

                   Maximum memory used (kb):     1085220.
                   Average memory used (kb):          N/A

                          Minor page faults:      1190097
                          Major page faults:            4
                 Voluntary context switches:        99391
