 vasp.6.3.0 20Jan22 (build Mar 29 2022 16:24:06) complex

 executed on             Bridges2 date 2023.01.10  17:44:23
 running on   32 total cores
 distrk:  each k-point on    4 cores,    8 groups
 distr:  one band on NCORE=   1 cores,    4 groups


--------------------------------------------------------------------------------------------------------


 INCAR:
   ICHARG = 2
   LWAVE = .FALSE.
   LCHARG = .FALSE.
   LVTOT = .FALSE.
   NCORE = 1
   KPAR = 8
   EDIFF = 1E-7
   NELM = 80
   PREC = Normal
   LREAL = Auto
   NELMIN = 4
   ENCUT = 400.0 eV
   ISPIN = 1
   ISMEAR = 0
   SIGMA = 0.10
   NSW = 0
   LEPSILON = .TRUE.
   LPEAD = .TRUE.
   ISYM = 0

 POTCAR:    PAW_PBE Ti_pv 07Sep2000
 POTCAR:    PAW_PBE O 08Apr2002
 -----------------------------------------------------------------------------
|                                                                             |
|           W    W    AA    RRRRR   N    N  II  N    N   GGGG   !!!           |
|           W    W   A  A   R    R  NN   N  II  NN   N  G    G  !!!           |
|           W    W  A    A  R    R  N N  N  II  N N  N  G       !!!           |
|           W WW W  AAAAAA  RRRRR   N  N N  II  N  N N  G  GGG   !            |
|           WW  WW  A    A  R   R   N   NN  II  N   NN  G    G                |
|           W    W  A    A  R    R  N    N  II  N    N   GGGG   !!!           |
|                                                                             |
|     For optimal performance we recommend to set                             |
|       NCORE = 2 up to number-of-cores-per-socket                            |
|     NCORE specifies how many cores store one orbital (NPAR=cpu/NCORE).      |
|     This setting can greatly improve the performance of VASP for DFT.       |
|     The default, NCORE=1 might be grossly inefficient on modern             |
|     multi-core architectures or massively parallel machines. Do your        |
|     own testing! More info at https://www.vasp.at/wiki/index.php/NCORE      |
|     Unfortunately you need to use the default for GW and RPA                |
|     calculations (for HF NCORE is supported but not extensively tested      |
|     yet).                                                                   |
|                                                                             |
 -----------------------------------------------------------------------------

 POTCAR:    PAW_PBE Ti_pv 07Sep2000
   VRHFIN =Ti: d3 s1
   LEXCH  = PE
   EATOM  =  1042.5995 eV,   76.6289 Ry

   TITEL  = PAW_PBE Ti_pv 07Sep2000
   LULTRA =        F    use ultrasoft PP ?
   IUNSCR =        1    unscreen: 0-lin 1-nonlin 2-no
   RPACOR =    2.200    partial core radius
   POMASS =   47.880; ZVAL   =   10.000    mass and valenz
   RCORE  =    2.500    outmost cutoff radius
   RWIGS  =    2.500; RWIGS  =    1.323    wigner-seitz radius (au A)
   ENMAX  =  222.335; ENMIN  =  166.751 eV
   RCLOC  =    1.701    cutoff for local pot
   LCOR   =        T    correct aug charges
   LPAW   =        T    paw PP
   EAUG   =  482.848
   DEXC   =    0.000
   RMAX   =    2.564    core radius for proj-oper
   RAUG   =    1.300    factor for augmentation sphere
   RDEP   =    2.538    radius for radial grids
   RDEPT  =    1.952    core radius for aug-charge

   Atomic configuration
    8 entries
     n  l   j            E        occ.
     1  0  0.50     -4865.3608   2.0000
     2  0  0.50      -533.1368   2.0000
     2  1  1.50      -440.5031   6.0000
     3  0  0.50       -59.3186   2.0000
     3  1  1.50       -35.7012   6.0000
     3  2  2.50        -1.9157   3.0000
     4  0  0.50        -3.7291   1.0000
     4  3  2.50        -1.3606   0.0000
   Description
     l       E           TYP  RCUT    TYP  RCUT
     1    -35.7012140     23  2.300
     1     -1.3605826     23  2.300
     2     -1.9156996     23  2.500
     2     -0.4063033     23  2.500
     0     -3.7290856     23  2.500
     0     20.4087390     23  2.500
  local pseudopotential read in
  partial core-charges read in
  partial kinetic energy density read in
  atomic valenz-charges read in
  non local Contribution for L=           1  read in
    real space projection operators read in
  non local Contribution for L=           1  read in
    real space projection operators read in
  non local Contribution for L=           2  read in
    real space projection operators read in
  non local Contribution for L=           2  read in
    real space projection operators read in
  non local Contribution for L=           0  read in
    real space projection operators read in
  non local Contribution for L=           0  read in
    real space projection operators read in
    PAW grid and wavefunctions read in

   number of l-projection  operators is LMAX  =           6
   number of lm-projection operators is LMMAX =          18

 POTCAR:    PAW_PBE O 08Apr2002
   VRHFIN =O: s2p4
   LEXCH  = PE
   EATOM  =   432.3788 eV,   31.7789 Ry

   TITEL  = PAW_PBE O 08Apr2002
   LULTRA =        F    use ultrasoft PP ?
   IUNSCR =        1    unscreen: 0-lin 1-nonlin 2-no
   RPACOR =    1.200    partial core radius
   POMASS =   16.000; ZVAL   =    6.000    mass and valenz
   RCORE  =    1.520    outmost cutoff radius
   RWIGS  =    1.550; RWIGS  =    0.820    wigner-seitz radius (au A)
   ENMAX  =  400.000; ENMIN  =  300.000 eV
   ICORE  =        2    local potential
   LCOR   =        T    correct aug charges
   LPAW   =        T    paw PP
   EAUG   =  605.392
   DEXC   =    0.000
   RMAX   =    1.553    core radius for proj-oper
   RAUG   =    1.300    factor for augmentation sphere
   RDEP   =    1.550    radius for radial grids
   RDEPT  =    1.329    core radius for aug-charge

   Atomic configuration
    4 entries
     n  l   j            E        occ.
     1  0  0.50      -514.6923   2.0000
     2  0  0.50       -23.9615   2.0000
     2  1  0.50        -9.0305   4.0000
     3  2  1.50        -9.5241   0.0000
   Description
     l       E           TYP  RCUT    TYP  RCUT
     0    -23.9615318     23  1.200
     0     -9.5240782     23  1.200
     1     -9.0304911     23  1.520
     1      8.1634956     23  1.520
     2     -9.5240782      7  1.500
  local pseudopotential read in
  partial core-charges read in
  partial kinetic energy density read in
  kinetic energy density of atom read in
  atomic valenz-charges read in
  non local Contribution for L=           0  read in
    real space projection operators read in
  non local Contribution for L=           0  read in
    real space projection operators read in
  non local Contribution for L=           1  read in
    real space projection operators read in
  non local Contribution for L=           1  read in
    real space projection operators read in
    PAW grid and wavefunctions read in

   number of l-projection  operators is LMAX  =           4
   number of lm-projection operators is LMMAX =           8

 Optimization of the real space projectors (new method)

 maximal supplied QI-value         = 15.12
 optimisation between [QCUT,QGAM] = [ 10.13, 20.41] = [ 28.73,116.64] Ry
 Optimized for a Real-space Cutoff    1.51 Angstroem

   l    n(q)    QCUT    max X(q) W(low)/X(q) W(high)/X(q)  e(spline)
   1      9    10.129     4.216    0.12E-04    0.72E-04    0.60E-07
   1      9    10.129     5.422    0.84E-04    0.21E-03    0.15E-06
   2      8    10.129    72.084    0.33E-03    0.35E-04    0.17E-06
   2      8    10.129    65.965    0.33E-03    0.37E-04    0.17E-06
   0      9    10.129    41.531    0.17E-03    0.19E-03    0.81E-07
   0      9    10.129    16.290    0.12E-03    0.14E-03    0.64E-07
 Optimization of the real space projectors (new method)

 maximal supplied QI-value         = 24.76
 optimisation between [QCUT,QGAM] = [ 10.15, 20.30] = [ 28.85,115.39] Ry
 Optimized for a Real-space Cutoff    1.38 Angstroem

   l    n(q)    QCUT    max X(q) W(low)/X(q) W(high)/X(q)  e(spline)
   0      8    10.150    20.381    0.22E-03    0.32E-03    0.29E-06
   0      8    10.150    15.268    0.23E-03    0.35E-03    0.30E-06
   1      8    10.150     5.964    0.46E-03    0.53E-03    0.21E-06
   1      8    10.150     5.382    0.38E-03    0.45E-03    0.19E-06
  PAW_PBE Ti_pv 07Sep2000               :
 energy of atom  1       EATOM=-1042.5995
 kinetic energy error for atom=    0.0037 (will be added to EATOM!!)
  PAW_PBE O 08Apr2002                   :
 energy of atom  2       EATOM= -432.3788
 kinetic energy error for atom=    0.1156 (will be added to EATOM!!)


 POSCAR: Ti4 O8
  positions in cartesian coordinates
  No initial velocities read in
 exchange correlation table for  LEXCH =        8
   RHO(1)=    0.500       N(1)  =     2000
   RHO(2)=  100.500       N(2)  =     4000



--------------------------------------------------------------------------------------------------------


 ion  position               nearest neighbor table
   1  0.167  0.167  0.500-  56 1.94  55 1.94  40 1.94  37 1.94 100 2.00  46 2.00  31 3.06  28 3.06
                            11 3.06  10 3.06
   2  0.167  0.500  0.500-  56 1.94  41 1.94  38 1.94  57 1.94 101 2.00  47 2.00  11 3.06  32 3.06
                            29 3.06  12 3.06
   3  0.167  0.833  0.500-  57 1.94  42 1.94  39 1.94  55 1.94 102 2.00  48 2.00  12 3.06  33 3.06
                            30 3.06  10 3.06
   4  0.500  0.167  0.500-  40 1.94  59 1.94  58 1.94  43 1.94 103 2.00  49 2.00  31 3.06  14 3.06
                            13 3.06  34 3.06
   5  0.500  0.500  0.521-  50 1.80  59 1.91  60 1.91  41 1.99  44 1.99 104 2.20  14 2.91  15 2.91

   6  0.500  0.833  0.500-  60 1.94  42 1.94  58 1.94  45 1.94 105 2.00  51 2.00  15 3.06  33 3.06
                            13 3.06  36 3.06
   7  0.833  0.167  0.500-  43 1.94  62 1.94  61 1.94  37 1.94 106 2.00  52 2.00  34 3.06  17 3.06
                            16 3.06  28 3.06
   8  0.833  0.500  0.500-  44 1.94  62 1.94  63 1.94  38 1.94 107 2.00  53 2.00  35 3.06  17 3.06
                            29 3.06  18 3.06
   9  0.833  0.833  0.500-  63 1.94  45 1.94  61 1.94  39 1.94 108 2.00  54 2.00  36 3.06  18 3.06
                            30 3.06  16 3.06
  10  0.167  0.000  0.750-  67 1.94  64 1.94  46 1.94  48 1.94  73 2.00  55 2.00  22 3.06  19 3.06
                             1 3.06   3 3.06
  11  0.167  0.333  0.750-  47 1.94  46 1.94  68 1.94  65 1.94  74 2.00  56 2.00   2 3.06  23 3.06
                            20 3.06   1 3.06
  12  0.167  0.667  0.750-  48 1.94  69 1.94  66 1.94  47 1.94  75 2.00  57 2.00   3 3.06  24 3.06
                            21 3.06   2 3.06
  13  0.500  0.000  0.750-  67 1.94  49 1.94  51 1.94  70 1.94  76 2.00  58 2.00  22 3.06   4 3.06
                            25 3.06   6 3.06
  14  0.500  0.333  0.750-  50 1.94  68 1.94  49 1.94  71 1.94  77 2.00  59 2.00   5 2.91  23 3.06
                             4 3.06  26 3.06
  15  0.500  0.667  0.750-  51 1.94  69 1.94  50 1.94  72 1.94  78 2.00  60 2.00   5 2.91   6 3.06
                            24 3.06  27 3.06
  16  0.833  0.000  0.750-  70 1.94  52 1.94  64 1.94  54 1.94  79 2.00  61 2.00  25 3.06   7 3.06
                            19 3.06   9 3.06
  17  0.833  0.333  0.750-  71 1.94  53 1.94  52 1.94  65 1.94  80 2.00  62 2.00  26 3.06   8 3.06
                             7 3.06  20 3.06
  18  0.833  0.667  0.750-  54 1.94  72 1.94  66 1.94  53 1.94  81 2.00  63 2.00  27 3.06   9 3.06
                            21 3.06   8 3.06
  19  0.000  0.000  0.000-  73 1.94  91 1.94  79 1.94  93 1.94  82 2.00  64 2.00  10 3.06  28 3.06
                            16 3.06  30 3.06
  20  0.000  0.333  0.000-  92 1.94  74 1.94  91 1.94  80 1.94  83 2.00  65 2.00  29 3.06  11 3.06
                            28 3.06  17 3.06
  21  0.000  0.667  0.000-  93 1.94  75 1.94  81 1.94  92 1.94  84 2.00  66 2.00  30 3.06  12 3.06
                            18 3.06  29 3.06
  22  0.333  0.000  0.000-  76 1.94  73 1.94  94 1.94  96 1.94  85 2.00  67 2.00  13 3.06  10 3.06
                            31 3.06  33 3.06
  23  0.333  0.333  0.000-  77 1.94  95 1.94  74 1.94  94 1.94  86 2.00  68 2.00  14 3.06  32 3.06
                            11 3.06  31 3.06
  24  0.333  0.667  0.000-  96 1.94  78 1.94  75 1.94  95 1.94  87 2.00  69 2.00  33 3.06  15 3.06
                            12 3.06  32 3.06
  25  0.667  0.000  0.000-  79 1.94  97 1.94  76 1.94  99 1.94  88 2.00  70 2.00  16 3.06  34 3.06
                            13 3.06  36 3.06
  26  0.667  0.333  0.000-  80 1.94  98 1.94  97 1.94  77 1.94  89 2.00  71 2.00  17 3.06  35 3.06
                            34 3.06  14 3.06
  27  0.667  0.667  0.000-  81 1.94  99 1.94  78 1.94  98 1.94  90 2.00  72 2.00  18 3.06  36 3.06
                            15 3.06  35 3.06
  28  0.000  0.167  0.250-  83 1.94  82 1.94 100 1.94 106 1.94  37 2.00  91 2.00   1 3.06  20 3.06
                            19 3.06   7 3.06
  29  0.000  0.500  0.250-  83 1.94 101 1.94  84 1.94 107 1.94  38 2.00  92 2.00  20 3.06   2 3.06
                             8 3.06  21 3.06
  30  0.000  0.833  0.250-  84 1.94 102 1.94  82 1.94 108 1.94  39 2.00  93 2.00  21 3.06   3 3.06
                             9 3.06  19 3.06
  31  0.333  0.167  0.250- 103 1.94  86 1.94  85 1.94 100 1.94  40 2.00  94 2.00   4 3.06   1 3.06
                            23 3.06  22 3.06
  32  0.333  0.500  0.250-  86 1.94 104 1.94 101 1.94  87 1.94  41 2.00  95 2.00  23 3.06   2 3.06
                            24 3.06
  33  0.333  0.833  0.250-  87 1.94 105 1.94 102 1.94  85 1.94  42 2.00  96 2.00  24 3.06   6 3.06
                             3 3.06  22 3.06
  34  0.667  0.167  0.250- 106 1.94  89 1.94  88 1.94 103 1.94  43 2.00  97 2.00   7 3.06  26 3.06
                            25 3.06   4 3.06
  35  0.667  0.500  0.250- 107 1.94  89 1.94  90 1.94 104 1.94  44 2.00  98 2.00   8 3.06  26 3.06
                            27 3.06
  36  0.667  0.833  0.250-  90 1.94 108 1.94  88 1.94 105 1.94  45 2.00  99 2.00   9 3.06  27 3.06
                            25 3.06   6 3.06
  37  0.000  0.167  0.458-   1 1.94   7 1.94  28 2.00
  38  0.000  0.500  0.458-   2 1.94   8 1.94  29 2.00
  39  0.000  0.833  0.458-   3 1.94   9 1.94  30 2.00
  40  0.333  0.167  0.458-   4 1.94   1 1.94  31 2.00
  41  0.333  0.500  0.458-   2 1.94   5 1.99  32 2.00
  42  0.333  0.833  0.458-   6 1.94   3 1.94  33 2.00
  43  0.667  0.167  0.458-   7 1.94   4 1.94  34 2.00
  44  0.667  0.500  0.458-   8 1.94   5 1.99  35 2.00
  45  0.667  0.833  0.458-   9 1.94   6 1.94  36 2.00
  46  0.167  0.167  0.708-  11 1.94  10 1.94   1 2.00
  47  0.167  0.500  0.708-  11 1.94  12 1.94   2 2.00
  48  0.167  0.833  0.708-  12 1.94  10 1.94   3 2.00
  49  0.500  0.167  0.708-  14 1.94  13 1.94   4 2.00
  50  0.500  0.500  0.708-   5 1.80  14 1.94  15 1.94
  51  0.500  0.833  0.708-  15 1.94  13 1.94   6 2.00
  52  0.833  0.167  0.708-  17 1.94  16 1.94   7 2.00
  53  0.833  0.500  0.708-  17 1.94  18 1.94   8 2.00
  54  0.833  0.833  0.708-  18 1.94  16 1.94   9 2.00
  55  0.167  0.000  0.542-   1 1.94   3 1.94  10 2.00
  56  0.167  0.333  0.542-   2 1.94   1 1.94  11 2.00
  57  0.167  0.667  0.542-   3 1.94   2 1.94  12 2.00
  58  0.500  0.000  0.542-   4 1.94   6 1.94  13 2.00
  59  0.500  0.333  0.542-   5 1.91   4 1.94  14 2.00
  60  0.500  0.667  0.542-   5 1.91   6 1.94  15 2.00
  61  0.833  0.000  0.542-   7 1.94   9 1.94  16 2.00
  62  0.833  0.333  0.542-   8 1.94   7 1.94  17 2.00
  63  0.833  0.667  0.542-   9 1.94   8 1.94  18 2.00
  64  0.000  0.000  0.792-  10 1.94  16 1.94  19 2.00
  65  0.000  0.333  0.792-  11 1.94  17 1.94  20 2.00
  66  0.000  0.667  0.792-  12 1.94  18 1.94  21 2.00
  67  0.333  0.000  0.792-  13 1.94  10 1.94  22 2.00
  68  0.333  0.333  0.792-  14 1.94  11 1.94  23 2.00
  69  0.333  0.667  0.792-  15 1.94  12 1.94  24 2.00
  70  0.667  0.000  0.792-  16 1.94  13 1.94  25 2.00
  71  0.667  0.333  0.792-  17 1.94  14 1.94  26 2.00
  72  0.667  0.667  0.792-  18 1.94  15 1.94  27 2.00
  73  0.167  0.000  0.958-  22 1.94  19 1.94  10 2.00
  74  0.167  0.333  0.958-  23 1.94  20 1.94  11 2.00
  75  0.167  0.667  0.958-  24 1.94  21 1.94  12 2.00
  76  0.500  0.000  0.958-  22 1.94  25 1.94  13 2.00
  77  0.500  0.333  0.958-  23 1.94  26 1.94  14 2.00
  78  0.500  0.667  0.958-  24 1.94  27 1.94  15 2.00
  79  0.833  0.000  0.958-  25 1.94  19 1.94  16 2.00
  80  0.833  0.333  0.958-  26 1.94  20 1.94  17 2.00
  81  0.833  0.667  0.958-  27 1.94  21 1.94  18 2.00
  82  0.000  0.000  0.208-  28 1.94  30 1.94  19 2.00
  83  0.000  0.333  0.208-  29 1.94  28 1.94  20 2.00
  84  0.000  0.667  0.208-  30 1.94  29 1.94  21 2.00
  85  0.333  0.000  0.208-  31 1.94  33 1.94  22 2.00
  86  0.333  0.333  0.208-  32 1.94  31 1.94  23 2.00
  87  0.333  0.667  0.208-  33 1.94  32 1.94  24 2.00
  88  0.667  0.000  0.208-  34 1.94  36 1.94  25 2.00
  89  0.667  0.333  0.208-  35 1.94  34 1.94  26 2.00
  90  0.667  0.667  0.208-  36 1.94  35 1.94  27 2.00
  91  0.000  0.167  0.042-  20 1.94  19 1.94  28 2.00
  92  0.000  0.500  0.042-  20 1.94  21 1.94  29 2.00
  93  0.000  0.833  0.042-  21 1.94  19 1.94  30 2.00
  94  0.333  0.167  0.042-  23 1.94  22 1.94  31 2.00
  95  0.333  0.500  0.042-  23 1.94  24 1.94  32 2.00
  96  0.333  0.833  0.042-  24 1.94  22 1.94  33 2.00
  97  0.667  0.167  0.042-  26 1.94  25 1.94  34 2.00
  98  0.667  0.500  0.042-  26 1.94  27 1.94  35 2.00
  99  0.667  0.833  0.042-  27 1.94  25 1.94  36 2.00
 100  0.167  0.167  0.292-  31 1.94  28 1.94   1 2.00
 101  0.167  0.500  0.292-  32 1.94  29 1.94   2 2.00
 102  0.167  0.833  0.292-  33 1.94  30 1.94   3 2.00
 103  0.500  0.167  0.292-  31 1.94  34 1.94   4 2.00
 104  0.500  0.500  0.292-  32 1.94  35 1.94   5 2.20
 105  0.500  0.833  0.292-  33 1.94  36 1.94   6 2.00
 106  0.833  0.167  0.292-  34 1.94  28 1.94   7 2.00
 107  0.833  0.500  0.292-  35 1.94  29 1.94   8 2.00
 108  0.833  0.833  0.292-  36 1.94  30 1.94   9 2.00


IMPORTANT INFORMATION: All symmetrisations will be switched off!
NOSYMM: (Re-)initialisation of all symmetry stuff for point group C_1.


----------------------------------------------------------------------------------------

                                     Primitive cell

  volume of cell :    1243.1447

  direct lattice vectors                    reciprocal lattice vectors
    11.376843452  0.000000000  0.000000000     0.087897843  0.000000000  0.000000000
     0.000000000 11.376843452  0.000000000     0.000000000  0.087897843  0.000000000
     0.000000000  0.000000000  9.604574204     0.000000000  0.000000000  0.104117057

  length of vectors
    11.376843452 11.376843452  9.604574204     0.087897843  0.087897843  0.104117057

  position of ions in fractional coordinates (direct lattice)
     0.166666672  0.166666672  0.500000000
     0.166666672  0.500000000  0.500000000
     0.166666672  0.833333313  0.500000000
     0.500000000  0.166666672  0.500000000
     0.500000000  0.500000000  0.520823411
     0.500000000  0.833333313  0.500000000
     0.833333313  0.166666672  0.500000000
     0.833333313  0.500000000  0.500000000
     0.833333313  0.833333313  0.500000000
     0.166666672  0.000000000  0.750000000
     0.166666672  0.333333343  0.750000000
     0.166666672  0.666666687  0.750000000
     0.500000000  0.000000000  0.750000000
     0.500000000  0.333333343  0.750000000
     0.500000000  0.666666687  0.750000000
     0.833333313  0.000000000  0.750000000
     0.833333313  0.333333343  0.750000000
     0.833333313  0.666666687  0.750000000
     0.000000000  0.000000000  0.000000000
     0.000000000  0.333333343  0.000000000
     0.000000000  0.666666687  0.000000000
     0.333333343  0.000000000  0.000000000
     0.333333343  0.333333343  0.000000000
     0.333333343  0.666666687  0.000000000
     0.666666687  0.000000000  0.000000000
     0.666666687  0.333333343  0.000000000
     0.666666687  0.666666687  0.000000000
     0.000000000  0.166666672  0.250000000
     0.000000000  0.500000000  0.250000000
     0.000000000  0.833333313  0.250000000
     0.333333343  0.166666672  0.250000000
     0.333333343  0.500000000  0.250000000
     0.333333343  0.833333313  0.250000000
     0.666666687  0.166666672  0.250000000
     0.666666687  0.500000000  0.250000000
     0.666666687  0.833333313  0.250000000
     0.000000000  0.166666672  0.457898587
     0.000000000  0.500000000  0.457898587
     0.000000000  0.833333313  0.457898587
     0.333333343  0.166666672  0.457898587
     0.333333343  0.500000000  0.457898587
     0.333333343  0.833333313  0.457898587
     0.666666687  0.166666672  0.457898587
     0.666666687  0.500000000  0.457898587
     0.666666687  0.833333313  0.457898587
     0.166666672  0.166666672  0.707898617
     0.166666672  0.500000000  0.707898617
     0.166666672  0.833333313  0.707898617
     0.500000000  0.166666672  0.707898617
     0.500000000  0.500000000  0.707898617
     0.500000000  0.833333313  0.707898617
     0.833333313  0.166666672  0.707898617
     0.833333313  0.500000000  0.707898617
     0.833333313  0.833333313  0.707898617
     0.166666672  0.000000000  0.542101383
     0.166666672  0.333333343  0.542101383
     0.166666672  0.666666687  0.542101383
     0.500000000  0.000000000  0.542101383
     0.500000000  0.333333343  0.542101383
     0.500000000  0.666666687  0.542101383
     0.833333313  0.000000000  0.542101383
     0.833333313  0.333333343  0.542101383
     0.833333313  0.666666687  0.542101383
     0.000000000  0.000000000  0.792101383
     0.000000000  0.333333343  0.792101383
     0.000000000  0.666666687  0.792101383
     0.333333343  0.000000000  0.792101383
     0.333333343  0.333333343  0.792101383
     0.333333343  0.666666687  0.792101383
     0.666666687  0.000000000  0.792101383
     0.666666687  0.333333343  0.792101383
     0.666666687  0.666666687  0.792101383
     0.166666672  0.000000000  0.957898617
     0.166666672  0.333333343  0.957898617
     0.166666672  0.666666687  0.957898617
     0.500000000  0.000000000  0.957898617
     0.500000000  0.333333343  0.957898617
     0.500000000  0.666666687  0.957898617
     0.833333313  0.000000000  0.957898617
     0.833333313  0.333333343  0.957898617
     0.833333313  0.666666687  0.957898617
     0.000000000  0.000000000  0.207898602
     0.000000000  0.333333343  0.207898602
     0.000000000  0.666666687  0.207898602
     0.333333343  0.000000000  0.207898602
     0.333333343  0.333333343  0.207898602
     0.333333343  0.666666687  0.207898602
     0.666666687  0.000000000  0.207898602
     0.666666687  0.333333343  0.207898602
     0.666666687  0.666666687  0.207898602
     0.000000000  0.166666672  0.042101406
     0.000000000  0.500000000  0.042101406
     0.000000000  0.833333313  0.042101406
     0.333333343  0.166666672  0.042101406
     0.333333343  0.500000000  0.042101406
     0.333333343  0.833333313  0.042101406
     0.666666687  0.166666672  0.042101406
     0.666666687  0.500000000  0.042101406
     0.666666687  0.833333313  0.042101406
     0.166666672  0.166666672  0.292101413
     0.166666672  0.500000000  0.292101413
     0.166666672  0.833333313  0.292101413
     0.500000000  0.166666672  0.292101413
     0.500000000  0.500000000  0.292101413
     0.500000000  0.833333313  0.292101413
     0.833333313  0.166666672  0.292101413
     0.833333313  0.500000000  0.292101413
     0.833333313  0.833333313  0.292101413

  ion indices of the primitive-cell ions
   primitive index   ion index
                 1           1
                 2           2
                 3           3
                 4           4
                 5           5
                 6           6
                 7           7
                 8           8
                 9           9
                10          10
                11          11
                12          12
                13          13
                14          14
                15          15
                16          16
                17          17
                18          18
                19          19
                20          20
                21          21
                22          22
                23          23
                24          24
                25          25
                26          26
                27          27
                28          28
                29          29
                30          30
                31          31
                32          32
                33          33
                34          34
                35          35
                36          36
                37          37
                38          38
                39          39
                40          40
                41          41
                42          42
                43          43
                44          44
                45          45
                46          46
                47          47
                48          48
                49          49
                50          50
                51          51
                52          52
                53          53
                54          54
                55          55
                56          56
                57          57
                58          58
                59          59
                60          60
                61          61
                62          62
                63          63
                64          64
                65          65
                66          66
                67          67
                68          68
                69          69
                70          70
                71          71
                72          72
                73          73
                74          74
                75          75
                76          76
                77          77
                78          78
                79          79
                80          80
                81          81
                82          82
                83          83
                84          84
                85          85
                86          86
                87          87
                88          88
                89          89
                90          90
                91          91
                92          92
                93          93
                94          94
                95          95
                96          96
                97          97
                98          98
                99          99
               100         100
               101         101
               102         102
               103         103
               104         104
               105         105
               106         106
               107         107
               108         108

----------------------------------------------------------------------------------------



 KPOINTS: K-Points

Automatic generation of k-mesh.
 Grid dimensions read from file:
 generate k-points for:    2    2    2

 Generating k-lattice:

  Cartesian coordinates                     Fractional coordinates (reciprocal lattice)
     0.043948922  0.000000000  0.000000000     0.500000000  0.000000000  0.000000000
     0.000000000  0.043948922  0.000000000     0.000000000  0.500000000  0.000000000
     0.000000000  0.000000000  0.052058529     0.000000000  0.000000000  0.500000000

  Length of vectors
     0.043948922  0.043948922  0.052058529

  Shift w.r.t. Gamma in fractional coordinates (k-lattice)
     0.500000000  0.500000000  0.500000000


 Subroutine IBZKPT returns following result:
 ===========================================

 Found      4 irreducible k-points:

 Following reciprocal coordinates:
            Coordinates               Weight
  0.250000  0.250000  0.250000      2.000000
 -0.250000  0.250000  0.250000      2.000000
 -0.250000 -0.250000  0.250000      2.000000
  0.250000 -0.250000  0.250000      2.000000

 Following cartesian coordinates:
            Coordinates               Weight
  0.021974  0.021974  0.026029      2.000000
 -0.021974  0.021974  0.026029      2.000000
 -0.021974 -0.021974  0.026029      2.000000
  0.021974 -0.021974  0.026029      2.000000


 Subroutine IBZKPT_HF returns following result:
 ==============================================

 Found      8 k-points in 1st BZ
 the following      8 k-points will be used (e.g. in the exchange kernel)
 Following reciprocal coordinates:   # in IRBZ
  0.250000  0.250000  0.250000    0.12500000   1 t-inv F
 -0.250000  0.250000  0.250000    0.12500000   2 t-inv F
 -0.250000 -0.250000  0.250000    0.12500000   3 t-inv F
  0.250000 -0.250000  0.250000    0.12500000   4 t-inv F
 -0.250000 -0.250000 -0.250000    0.12500000   1 t-inv T
  0.250000 -0.250000 -0.250000    0.12500000   2 t-inv T
  0.250000  0.250000 -0.250000    0.12500000   3 t-inv T
 -0.250000  0.250000 -0.250000    0.12500000   4 t-inv T


--------------------------------------------------------------------------------------------------------




 Dimension of arrays:
   k-points           NKPTS =      4   k-points in BZ     NKDIM =      4   number of bands    NBANDS=    476
   number of dos      NEDOS =    301   number of ions     NIONS =    108
   non local maximal  LDIM  =      6   non local SUM 2l+1 LMDIM =     18
   total plane-waves  NPLWV = 150528
   max r-space proj   IRMAX =   1791   max aug-charges    IRDMAX=   4900
   dimension x,y,z NGX =    56 NGY =   56 NGZ =   48
   dimension x,y,z NGXF=   112 NGYF=  112 NGZF=   96
   support grid    NGXF=   112 NGYF=  112 NGZF=   96
   ions per type =              36  72
   NGX,Y,Z   is equivalent  to a cutoff of   8.18,  8.18,  8.31 a.u.
   NGXF,Y,Z  is equivalent  to a cutoff of  16.37, 16.37, 16.62 a.u.

 SYSTEM =  unknown system
 POSCAR =  Ti4 O8

 Startparameter for this run:
   NWRITE =      2    write-flag & timer
   PREC   = normal    normal or accurate (medium, high low for compatibility)
   ISTART =      0    job   : 0-new  1-cont  2-samecut
   ICHARG =      2    charge: 1-file 2-atom 10-const
   ISPIN  =      1    spin polarized calculation?
   LNONCOLLINEAR =      F non collinear calculations
   LSORBIT =      F    spin-orbit coupling
   INIWAV =      1    electr: 0-lowe 1-rand  2-diag
   LASPH  =      F    aspherical Exc in radial PAW
 Electronic Relaxation 1
   ENCUT  =  400.0 eV  29.40 Ry    5.42 a.u.  18.55 18.55 15.66*2*pi/ulx,y,z
   ENINI  =  400.0     initial cutoff
   ENAUG  =  605.4 eV  augmentation charge cutoff
   NELM   =     80;   NELMIN=  4; NELMDL= -5     # of ELM steps
   EDIFF  = 0.1E-06   stopping-criterion for ELM
   LREAL  =      T    real-space projection
   NLSPLINE    = F    spline interpolate recip. space projectors
   LCOMPAT=      F    compatible to vasp.4.4
   GGA_COMPAT  = T    GGA compatible to vasp.4.4-vasp.4.6
   LMAXPAW     = -100 max onsite density
   LMAXMIX     =    2 max onsite mixed and CHGCAR
   VOSKOWN=      0    Vosko Wilk Nusair interpolation
   ROPT   =   -0.00050  -0.00050
 Ionic relaxation
   EDIFFG = 0.1E-05   stopping-criterion for IOM
   NSW    =      0    number of steps for IOM
   NBLOCK =      1;   KBLOCK =      1    inner block; outer block
   IBRION =     -1    ionic relax: 0-MD 1-quasi-New 2-CG
   NFREE  =      0    steps in history (QN), initial steepest desc. (CG)
   ISIF   =      2    stress and relaxation
   IWAVPR =     10    prediction:  0-non 1-charg 2-wave 3-comb
   ISYM   =      0    0-nonsym 1-usesym 2-fastsym
   LCORR  =      T    Harris-Foulkes like correction to forces

   POTIM  = 0.5000    time-step for ionic-motion
   TEIN   =    0.0    initial temperature
   TEBEG  =    0.0;   TEEND  =   0.0 temperature during run
   SMASS  =  -3.00    Nose mass-parameter (am)
   estimated Nose-frequenzy (Omega)   =  0.10E-29 period in steps = 0.13E+47 mass=  -0.296E-26a.u.
   SCALEE = 1.0000    scale energy and forces
   NPACO  =    256;   APACO  = 10.0  distance and # of slots for P.C.
   PSTRESS=    0.0 pullay stress

  Mass of Ions in am
   POMASS =  47.88 16.00
  Ionic Valenz
   ZVAL   =  10.00  6.00
  Atomic Wigner-Seitz radii
   RWIGS  =  -1.00 -1.00
  virtual crystal weights
   VCA    =   1.00  1.00
   NELECT =     792.0000    total number of electrons
   NUPDOWN=      -1.0000    fix difference up-down

 DOS related values:
   EMIN   =  10.00;   EMAX   =-10.00  energy-range for DOS
   EFERMI =   0.00
   ISMEAR =     0;   SIGMA  =   0.10  broadening in eV -4-tet -1-fermi 0-gaus

 Electronic relaxation 2 (details)
   IALGO  =     38    algorithm
   LDIAG  =      T    sub-space diagonalisation (order eigenvalues)
   LSUBROT=      F    optimize rotation matrix (better conditioning)
   TURBO    =      0    0=normal 1=particle mesh
   IRESTART =      0    0=no restart 2=restart with 2 vectors
   NREBOOT  =      0    no. of reboots
   NMIN     =      0    reboot dimension
   EREF     =   0.00    reference energy to select bands
   IMIX   =      4    mixing-type and parameters
     AMIX     =   0.40;   BMIX     =  1.00
     AMIX_MAG =   1.60;   BMIX_MAG =  1.00
     AMIN     =   0.10
     WC   =   100.;   INIMIX=   1;  MIXPRE=   1;  MAXMIX= -45

 Intra band minimization:
   WEIMIN = 0.0000     energy-eigenvalue tresh-hold
   EBREAK =  0.53E-10  absolut break condition
   DEPER  =   0.30     relativ break condition

   TIME   =   0.40     timestep for ELM

  volume/ion in A,a.u.               =      11.51        77.68
  Fermi-wavevector in a.u.,A,eV,Ry     =   1.408670  2.662001 26.998745  1.984352
  Thomas-Fermi vector in A             =   2.530804

 Write flags
   LWAVE        =      F    write WAVECAR
   LDOWNSAMPLE  =      F    k-point downsampling of WAVECAR
   LCHARG       =      F    write CHGCAR
   LVTOT        =      F    write LOCPOT, total local potential
   LVHAR        =      F    write LOCPOT, Hartree potential only
   LELF         =      F    write electronic localiz. function (ELF)
   LORBIT       =      0    0 simple, 1 ext, 2 COOP (PROOUT), +10 PAW based schemes


 Dipole corrections
   LMONO  =      F    monopole corrections only (constant potential shift)
   LDIPOL =      F    correct potential (dipole corrections)
   IDIPOL =      0    1-x, 2-y, 3-z, 4-all directions
   EPSILON=  1.0000000 bulk dielectric constant

 Exchange correlation treatment:
   GGA     =    --    GGA type
   LEXCH   =     8    internal setting for exchange type
   LIBXC   =     F    Libxc
   VOSKOWN =     0    Vosko Wilk Nusair interpolation
   LHFCALC =     F    Hartree Fock is set to
   LHFONE  =     F    Hartree Fock one center treatment
   AEXX    =    0.0000 exact exchange contribution

 Linear response parameters
   LEPSILON=     T    determine dielectric tensor
   LRPA    =     F    only Hartree local field effects (RPA)
   LNABLA  =     F    use nabla operator in PAW spheres
   LVEL    =     F    velocity operator in full k-point grid
   CSHIFT  =0.1000    complex shift for real part using Kramers Kronig
   OMEGAMAX=  -1.0    maximum frequency
   DEG_THRESHOLD= 0.2000000E-02 threshold for treating states as degnerate
   RTIME   =   -0.100 relaxation time in fs
  (WPLASMAI=    0.000 imaginary part of plasma frequency in eV, 0.658/RTIME)
   DFIELD  = 0.0000000 0.0000000 0.0000000 field for delta impulse in time

  Optional k-point grid parameters
   LKPOINTS_OPT  =     F    use optional k-point grid
   KPOINTS_OPT_MODE=     1    mode for optional k-point grid

 Orbital magnetization related:
   ORBITALMAG=     F  switch on orbital magnetization
   LCHIMAG   =     F  perturbation theory with respect to B field
   DQ        =  0.001000  dq finite difference perturbation B field
   LLRAUG    =     F  two centre corrections for induced B field

 PEAD related settings:
   LPEAD      =     T    switch on PEAD
   IPEAD      =     4    finite difference order for dpsi/dk
   LCALCPOL   =     F    calculate macroscopic polarization
   LCALCEPS   =     F    calculate dielectric tensor
   EFIELD_PEAD=    0.0000    0.0000    0.0000
   SKIP_EDOTP =     F
   LRPA       =     F
   SKIP_SCF   =     F


--------------------------------------------------------------------------------------------------------


 Static calculation
 charge density and potential will be updated during run
 non-spin polarized calculation
 Variant of blocked Davidson
 Davidson routine will perform the subspace rotation
 perform sub-space diagonalisation
    after iterative eigenvector-optimisation
 modified Broyden-mixing scheme, WC =      100.0
 initial mixing is a Kerker type mixing with AMIX =  0.4000 and BMIX =      1.0000
 Hartree-type preconditioning will be used
 using additional bands           80
 real space projection scheme for non local part
 use partial core corrections
 calculate Harris-corrections to forces
   (improved forces if not selfconsistent)
 use gradient corrections
 use of overlap-Matrix (Vanderbilt PP)
 Gauss-broadening in eV      SIGMA  =   0.10


--------------------------------------------------------------------------------------------------------


  energy-cutoff  :      400.00
  volume of cell :     1243.14
      direct lattice vectors                 reciprocal lattice vectors
    11.376843452  0.000000000  0.000000000     0.087897843  0.000000000  0.000000000
     0.000000000 11.376843452  0.000000000     0.000000000  0.087897843  0.000000000
     0.000000000  0.000000000  9.604574204     0.000000000  0.000000000  0.104117057

  length of vectors
    11.376843452 11.376843452  9.604574204     0.087897843  0.087897843  0.104117057



 k-points in units of 2pi/SCALE and weight: K-Points
   0.02197446  0.02197446  0.02602926       0.250
  -0.02197446  0.02197446  0.02602926       0.250
  -0.02197446 -0.02197446  0.02602926       0.250
   0.02197446 -0.02197446  0.02602926       0.250

 k-points in reciprocal lattice and weights: K-Points
   0.25000000  0.25000000  0.25000000       0.250
  -0.25000000  0.25000000  0.25000000       0.250
  -0.25000000 -0.25000000  0.25000000       0.250
   0.25000000 -0.25000000  0.25000000       0.250

 position of ions in fractional coordinates (direct lattice)
   0.16666667  0.16666667  0.50000000
   0.16666667  0.50000000  0.50000000
   0.16666667  0.83333331  0.50000000
   0.50000000  0.16666667  0.50000000
   0.50000000  0.50000000  0.52082341
   0.50000000  0.83333331  0.50000000
   0.83333331  0.16666667  0.50000000
   0.83333331  0.50000000  0.50000000
   0.83333331  0.83333331  0.50000000
   0.16666667  0.00000000  0.75000000
   0.16666667  0.33333334  0.75000000
   0.16666667  0.66666669  0.75000000
   0.50000000  0.00000000  0.75000000
   0.50000000  0.33333334  0.75000000
   0.50000000  0.66666669  0.75000000
   0.83333331  0.00000000  0.75000000
   0.83333331  0.33333334  0.75000000
   0.83333331  0.66666669  0.75000000
   0.00000000  0.00000000  0.00000000
   0.00000000  0.33333334  0.00000000
   0.00000000  0.66666669  0.00000000
   0.33333334  0.00000000  0.00000000
   0.33333334  0.33333334  0.00000000
   0.33333334  0.66666669  0.00000000
   0.66666669  0.00000000  0.00000000
   0.66666669  0.33333334  0.00000000
   0.66666669  0.66666669  0.00000000
   0.00000000  0.16666667  0.25000000
   0.00000000  0.50000000  0.25000000
   0.00000000  0.83333331  0.25000000
   0.33333334  0.16666667  0.25000000
   0.33333334  0.50000000  0.25000000
   0.33333334  0.83333331  0.25000000
   0.66666669  0.16666667  0.25000000
   0.66666669  0.50000000  0.25000000
   0.66666669  0.83333331  0.25000000
   0.00000000  0.16666667  0.45789859
   0.00000000  0.50000000  0.45789859
   0.00000000  0.83333331  0.45789859
   0.33333334  0.16666667  0.45789859
   0.33333334  0.50000000  0.45789859
   0.33333334  0.83333331  0.45789859
   0.66666669  0.16666667  0.45789859
   0.66666669  0.50000000  0.45789859
   0.66666669  0.83333331  0.45789859
   0.16666667  0.16666667  0.70789862
   0.16666667  0.50000000  0.70789862
   0.16666667  0.83333331  0.70789862
   0.50000000  0.16666667  0.70789862
   0.50000000  0.50000000  0.70789862
   0.50000000  0.83333331  0.70789862
   0.83333331  0.16666667  0.70789862
   0.83333331  0.50000000  0.70789862
   0.83333331  0.83333331  0.70789862
   0.16666667  0.00000000  0.54210138
   0.16666667  0.33333334  0.54210138
   0.16666667  0.66666669  0.54210138
   0.50000000  0.00000000  0.54210138
   0.50000000  0.33333334  0.54210138
   0.50000000  0.66666669  0.54210138
   0.83333331  0.00000000  0.54210138
   0.83333331  0.33333334  0.54210138
   0.83333331  0.66666669  0.54210138
   0.00000000  0.00000000  0.79210138
   0.00000000  0.33333334  0.79210138
   0.00000000  0.66666669  0.79210138
   0.33333334  0.00000000  0.79210138
   0.33333334  0.33333334  0.79210138
   0.33333334  0.66666669  0.79210138
   0.66666669  0.00000000  0.79210138
   0.66666669  0.33333334  0.79210138
   0.66666669  0.66666669  0.79210138
   0.16666667  0.00000000  0.95789862
   0.16666667  0.33333334  0.95789862
   0.16666667  0.66666669  0.95789862
   0.50000000  0.00000000  0.95789862
   0.50000000  0.33333334  0.95789862
   0.50000000  0.66666669  0.95789862
   0.83333331  0.00000000  0.95789862
   0.83333331  0.33333334  0.95789862
   0.83333331  0.66666669  0.95789862
   0.00000000  0.00000000  0.20789860
   0.00000000  0.33333334  0.20789860
   0.00000000  0.66666669  0.20789860
   0.33333334  0.00000000  0.20789860
   0.33333334  0.33333334  0.20789860
   0.33333334  0.66666669  0.20789860
   0.66666669  0.00000000  0.20789860
   0.66666669  0.33333334  0.20789860
   0.66666669  0.66666669  0.20789860
   0.00000000  0.16666667  0.04210141
   0.00000000  0.50000000  0.04210141
   0.00000000  0.83333331  0.04210141
   0.33333334  0.16666667  0.04210141
   0.33333334  0.50000000  0.04210141
   0.33333334  0.83333331  0.04210141
   0.66666669  0.16666667  0.04210141
   0.66666669  0.50000000  0.04210141
   0.66666669  0.83333331  0.04210141
   0.16666667  0.16666667  0.29210141
   0.16666667  0.50000000  0.29210141
   0.16666667  0.83333331  0.29210141
   0.50000000  0.16666667  0.29210141
   0.50000000  0.50000000  0.29210141
   0.50000000  0.83333331  0.29210141
   0.83333331  0.16666667  0.29210141
   0.83333331  0.50000000  0.29210141
   0.83333331  0.83333331  0.29210141

 position of ions in cartesian coordinates  (Angst):
   1.89614063  1.89614063  4.80228710
   1.89614063  5.68842173  4.80228710
   1.89614063  9.48070265  4.80228710
   5.68842173  1.89614063  4.80228710
   5.68842173  5.68842173  5.00228710
   5.68842173  9.48070265  4.80228710
   9.48070265  1.89614063  4.80228710
   9.48070265  5.68842173  4.80228710
   9.48070265  9.48070265  4.80228710
   1.89614063  0.00000000  7.20343065
   1.89614063  3.79228126  7.20343065
   1.89614063  7.58456253  7.20343065
   5.68842173  0.00000000  7.20343065
   5.68842173  3.79228126  7.20343065
   5.68842173  7.58456253  7.20343065
   9.48070265  0.00000000  7.20343065
   9.48070265  3.79228126  7.20343065
   9.48070265  7.58456253  7.20343065
   0.00000000  0.00000000  0.00000000
   0.00000000  3.79228126  0.00000000
   0.00000000  7.58456253  0.00000000
   3.79228126  0.00000000  0.00000000
   3.79228126  3.79228126  0.00000000
   3.79228126  7.58456253  0.00000000
   7.58456253  0.00000000  0.00000000
   7.58456253  3.79228126  0.00000000
   7.58456253  7.58456253  0.00000000
   0.00000000  1.89614063  2.40114355
   0.00000000  5.68842173  2.40114355
   0.00000000  9.48070265  2.40114355
   3.79228126  1.89614063  2.40114355
   3.79228126  5.68842173  2.40114355
   3.79228126  9.48070265  2.40114355
   7.58456253  1.89614063  2.40114355
   7.58456253  5.68842173  2.40114355
   7.58456253  9.48070265  2.40114355
   0.00000000  1.89614063  4.39792096
   0.00000000  5.68842173  4.39792096
   0.00000000  9.48070265  4.39792096
   3.79228126  1.89614063  4.39792096
   3.79228126  5.68842173  4.39792096
   3.79228126  9.48070265  4.39792096
   7.58456253  1.89614063  4.39792096
   7.58456253  5.68842173  4.39792096
   7.58456253  9.48070265  4.39792096
   1.89614063  1.89614063  6.79906479
   1.89614063  5.68842173  6.79906479
   1.89614063  9.48070265  6.79906479
   5.68842173  1.89614063  6.79906479
   5.68842173  5.68842173  6.79906479
   5.68842173  9.48070265  6.79906479
   9.48070265  1.89614063  6.79906479
   9.48070265  5.68842173  6.79906479
   9.48070265  9.48070265  6.79906479
   1.89614063  0.00000000  5.20665296
   1.89614063  3.79228126  5.20665296
   1.89614063  7.58456253  5.20665296
   5.68842173  0.00000000  5.20665296
   5.68842173  3.79228126  5.20665296
   5.68842173  7.58456253  5.20665296
   9.48070265  0.00000000  5.20665296
   9.48070265  3.79228126  5.20665296
   9.48070265  7.58456253  5.20665296
   0.00000000  0.00000000  7.60779651
   0.00000000  3.79228126  7.60779651
   0.00000000  7.58456253  7.60779651
   3.79228126  0.00000000  7.60779651
   3.79228126  3.79228126  7.60779651
   3.79228126  7.58456253  7.60779651
   7.58456253  0.00000000  7.60779651
   7.58456253  3.79228126  7.60779651
   7.58456253  7.58456253  7.60779651
   1.89614063  0.00000000  9.20020834
   1.89614063  3.79228126  9.20020834
   1.89614063  7.58456253  9.20020834
   5.68842173  0.00000000  9.20020834
   5.68842173  3.79228126  9.20020834
   5.68842173  7.58456253  9.20020834
   9.48070265  0.00000000  9.20020834
   9.48070265  3.79228126  9.20020834
   9.48070265  7.58456253  9.20020834
   0.00000000  0.00000000  1.99677755
   0.00000000  3.79228126  1.99677755
   0.00000000  7.58456253  1.99677755
   3.79228126  0.00000000  1.99677755
   3.79228126  3.79228126  1.99677755
   3.79228126  7.58456253  1.99677755
   7.58456253  0.00000000  1.99677755
   7.58456253  3.79228126  1.99677755
   7.58456253  7.58456253  1.99677755
   0.00000000  1.89614063  0.40436607
   0.00000000  5.68842173  0.40436607
   0.00000000  9.48070265  0.40436607
   3.79228126  1.89614063  0.40436607
   3.79228126  5.68842173  0.40436607
   3.79228126  9.48070265  0.40436607
   7.58456253  1.89614063  0.40436607
   7.58456253  5.68842173  0.40436607
   7.58456253  9.48070265  0.40436607
   1.89614063  1.89614063  2.80550970
   1.89614063  5.68842173  2.80550970
   1.89614063  9.48070265  2.80550970
   5.68842173  1.89614063  2.80550970
   5.68842173  5.68842173  2.80550970
   5.68842173  9.48070265  2.80550970
   9.48070265  1.89614063  2.80550970
   9.48070265  5.68842173  2.80550970
   9.48070265  9.48070265  2.80550970



--------------------------------------------------------------------------------------------------------


 k-point   1 :   0.2500 0.2500 0.2500  plane waves:   22590
 k-point   2 :  -0.2500 0.2500 0.2500  plane waves:   22590
 k-point   3 :  -0.2500-0.2500 0.2500  plane waves:   22590
 k-point   4 :   0.2500-0.2500 0.2500  plane waves:   22590

 maximum and minimum number of plane-waves per node :     22590    22590

 maximum number of plane-waves:     22590
 maximum index in each direction:
   IXMAX=   18   IYMAX=   18   IZMAX=   15
   IXMIN=  -18   IYMIN=  -18   IZMIN=  -15


 serial   3D FFT for wavefunctions
 parallel 3D FFT for charge:
    minimum data exchange during FFTs selected (reduces bandwidth)


 total amount of memory used by VASP MPI-rank0   266725. kBytes
=======================================================================

   base      :      30000. kBytes
   nonlr-proj:      19556. kBytes
   fftplans  :      10927. kBytes
   grid      :      23181. kBytes
   one-center:       1679. kBytes
   wavefun   :     181382. kBytes

     INWAV:  cpu time      0.0000: real time      0.0002
 Broyden mixing: mesh for mixing (old mesh)
   NGX = 37   NGY = 37   NGZ = 31
  (NGX  =112   NGY  =112   NGZ  = 96)
  gives a total of  42439 points

 initial charge density was supplied:
 charge density of overlapping atoms calculated
 number of electron     792.0000000 magnetization
 keeping initial charge density in first step


--------------------------------------------------------------------------------------------------------


 Maximum index for non-local projection operator         1743
 Maximum index for augmentation-charges         1189 (set IRDMAX)


--------------------------------------------------------------------------------------------------------


 First call to EWALD:  gamma=   0.165
 Maximum number of real-space cells 3x 3x 3
 Maximum number of reciprocal cells 3x 3x 3

    FEWALD:  cpu time      0.0029: real time      0.0032


--------------------------------------- Iteration      1(   1)  ---------------------------------------


    POTLOK:  cpu time      0.1628: real time      0.1653
    SETDIJ:  cpu time      0.0217: real time      0.0227
     EDDAV:  cpu time     11.7634: real time     13.1095
       DOS:  cpu time      0.0020: real time      0.0029
    --------------------------------------------
      LOOP:  cpu time     11.9499: real time     13.3003

 eigenvalue-minimisations  :  3824
 total energy-change (2. order) : 0.1156101E+05  (-0.3305655E+05)
 number of electron     792.0000000 magnetization
 augmentation part      792.0000000 magnetization

 Free energy of the ion-electron system (eV)
  ---------------------------------------------------
  alpha Z        PSCENC =      3563.47650690
  Ewald energy   TEWEN  =    -48580.05829435
  -Hartree energ DENC   =    -18847.78809981
  -exchange      EXHF   =         0.00000000
  -V(xc)+E(xc)   XCENC  =      3286.92276256
  PAW double counting   =     54431.09303398   -54537.79254336
  entropy T*S    EENTRO =        -0.17114121
  eigenvalues    EBANDS =      3588.92423513
  atomic energy  EATOM  =     68656.39924158
  Solvation  Ediel_sol  =         0.00000000
  ---------------------------------------------------
  free energy    TOTEN  =     11561.00570142 eV

  energy without entropy =    11561.17684263  energy(sigma->0) =    11561.09127202


--------------------------------------------------------------------------------------------------------




--------------------------------------- Iteration      1(   2)  ---------------------------------------


     EDDAV:  cpu time     11.5746: real time     12.9084
       DOS:  cpu time      0.0009: real time      0.0009
    --------------------------------------------
      LOOP:  cpu time     11.5755: real time     12.9093

 eigenvalue-minimisations  :  3808
 total energy-change (2. order) :-0.9987749E+04  (-0.9558340E+04)
 number of electron     792.0000000 magnetization
 augmentation part      792.0000000 magnetization

 Free energy of the ion-electron system (eV)
  ---------------------------------------------------
  alpha Z        PSCENC =      3563.47650690
  Ewald energy   TEWEN  =    -48580.05829435
  -Hartree energ DENC   =    -18847.78809981
  -exchange      EXHF   =         0.00000000
  -V(xc)+E(xc)   XCENC  =      3286.92276256
  PAW double counting   =     54431.09303398   -54537.79254336
  entropy T*S    EENTRO =        -0.28267260
  eigenvalues    EBANDS =     -6398.71361784
  atomic energy  EATOM  =     68656.39924158
  Solvation  Ediel_sol  =         0.00000000
  ---------------------------------------------------
  free energy    TOTEN  =      1573.25631706 eV

  energy without entropy =     1573.53898966  energy(sigma->0) =     1573.39765336


--------------------------------------------------------------------------------------------------------




--------------------------------------- Iteration      1(   3)  ---------------------------------------


     EDDAV:  cpu time     14.4528: real time     15.1895
       DOS:  cpu time      0.0010: real time      0.0010
    --------------------------------------------
      LOOP:  cpu time     14.4538: real time     15.1906

 eigenvalue-minimisations  :  4424
 total energy-change (2. order) :-0.2642578E+04  (-0.2571073E+04)
 number of electron     792.0000000 magnetization
 augmentation part      792.0000000 magnetization

 Free energy of the ion-electron system (eV)
  ---------------------------------------------------
  alpha Z        PSCENC =      3563.47650690
  Ewald energy   TEWEN  =    -48580.05829435
  -Hartree energ DENC   =    -18847.78809981
  -exchange      EXHF   =         0.00000000
  -V(xc)+E(xc)   XCENC  =      3286.92276256
  PAW double counting   =     54431.09303398   -54537.79254336
  entropy T*S    EENTRO =        -0.00000000
  eigenvalues    EBANDS =     -9041.57432314
  atomic energy  EATOM  =     68656.39924158
  Solvation  Ediel_sol  =         0.00000000
  ---------------------------------------------------
  free energy    TOTEN  =     -1069.32171564 eV

  energy without entropy =    -1069.32171564  energy(sigma->0) =    -1069.32171564


--------------------------------------------------------------------------------------------------------




--------------------------------------- Iteration      1(   4)  ---------------------------------------


     EDDAV:  cpu time     18.1701: real time     18.3915
       DOS:  cpu time      0.0006: real time      0.0006
    --------------------------------------------
      LOOP:  cpu time     18.1707: real time     18.3921

 eigenvalue-minimisations  :  5048
 total energy-change (2. order) :-0.2035181E+03  (-0.2024093E+03)
 number of electron     792.0000000 magnetization
 augmentation part      792.0000000 magnetization

 Free energy of the ion-electron system (eV)
  ---------------------------------------------------
  alpha Z        PSCENC =      3563.47650690
  Ewald energy   TEWEN  =    -48580.05829435
  -Hartree energ DENC   =    -18847.78809981
  -exchange      EXHF   =         0.00000000
  -V(xc)+E(xc)   XCENC  =      3286.92276256
  PAW double counting   =     54431.09303398   -54537.79254336
  entropy T*S    EENTRO =        -0.00000000
  eigenvalues    EBANDS =     -9245.09244877
  atomic energy  EATOM  =     68656.39924158
  Solvation  Ediel_sol  =         0.00000000
  ---------------------------------------------------
  free energy    TOTEN  =     -1272.83984127 eV

  energy without entropy =    -1272.83984127  energy(sigma->0) =    -1272.83984127


--------------------------------------------------------------------------------------------------------




--------------------------------------- Iteration      1(   5)  ---------------------------------------


     EDDAV:  cpu time     17.9339: real time     18.1319
       DOS:  cpu time      0.0006: real time      0.0006
    CHARGE:  cpu time      0.2333: real time      0.2446
    MIXING:  cpu time      0.0118: real time      0.0126
    --------------------------------------------
      LOOP:  cpu time     18.1796: real time     18.3896

 eigenvalue-minimisations  :  4944
 total energy-change (2. order) :-0.5320079E+01  (-0.5307755E+01)
 number of electron     792.0003054 magnetization
 augmentation part      202.2462688 magnetization

 Broyden mixing:
  rms(total) = 0.17265E+02    rms(broyden)= 0.17264E+02
  rms(prec ) = 0.19198E+02
  weight for this iteration     100.00

 Free energy of the ion-electron system (eV)
  ---------------------------------------------------
  alpha Z        PSCENC =      3563.47650690
  Ewald energy   TEWEN  =    -48580.05829435
  -Hartree energ DENC   =    -18847.78809981
  -exchange      EXHF   =         0.00000000
  -V(xc)+E(xc)   XCENC  =      3286.92276256
  PAW double counting   =     54431.09303398   -54537.79254336
  entropy T*S    EENTRO =        -0.00000000
  eigenvalues    EBANDS =     -9250.41252810
  atomic energy  EATOM  =     68656.39924158
  Solvation  Ediel_sol  =         0.00000000
  ---------------------------------------------------
  free energy    TOTEN  =     -1278.15992060 eV

  energy without entropy =    -1278.15992060  energy(sigma->0) =    -1278.15992060


--------------------------------------------------------------------------------------------------------




--------------------------------------- Iteration      1(   6)  ---------------------------------------


    POTLOK:  cpu time      0.1937: real time      0.1955
    SETDIJ:  cpu time      0.0203: real time      0.0207
     EDDAV:  cpu time     17.8467: real time     18.0360
       DOS:  cpu time      0.0005: real time      0.0005
    CHARGE:  cpu time      0.2270: real time      0.2352
    MIXING:  cpu time      0.0119: real time      0.0164
    --------------------------------------------
      LOOP:  cpu time     18.3002: real time     18.5043

 eigenvalue-minimisations  :  4976
 total energy-change (2. order) : 0.3023156E+03  (-0.1970936E+03)
 number of electron     792.0002459 magnetization
 augmentation part      214.1441117 magnetization

 Broyden mixing:
  rms(total) = 0.53201E+01    rms(broyden)= 0.53151E+01
  rms(prec ) = 0.58458E+01
  weight for this iteration     100.00

 eigenvalues of (default mixing * dielectric matrix)
  average eigenvalue GAMMA=   0.9665
  0.9665

 Free energy of the ion-electron system (eV)
  ---------------------------------------------------
  alpha Z        PSCENC =      3563.47650690
  Ewald energy   TEWEN  =    -48580.05829435
  -Hartree energ DENC   =    -19072.17619405
  -exchange      EXHF   =         0.00000000
  -V(xc)+E(xc)   XCENC  =      3337.91663988
  PAW double counting   =     68282.81483501   -68515.11756165
  entropy T*S    EENTRO =        -0.00000000
  eigenvalues    EBANDS =     -8649.09950964
  atomic energy  EATOM  =     68656.39924158
  Solvation  Ediel_sol  =         0.00000000
  ---------------------------------------------------
  free energy    TOTEN  =      -975.84433633 eV

  energy without entropy =     -975.84433633  energy(sigma->0) =     -975.84433633


--------------------------------------------------------------------------------------------------------




--------------------------------------- Iteration      1(   7)  ---------------------------------------


    POTLOK:  cpu time      0.1823: real time      0.1841
    SETDIJ:  cpu time      0.0083: real time      0.0084
     EDDAV:  cpu time     18.9469: real time     19.1781
       DOS:  cpu time      0.0038: real time      0.0038
    CHARGE:  cpu time      0.2361: real time      0.2413
    MIXING:  cpu time      0.0124: real time      0.0125
    --------------------------------------------
      LOOP:  cpu time     19.3898: real time     19.6281

 eigenvalue-minimisations  :  5336
 total energy-change (2. order) : 0.4100300E+01  (-0.2870413E+02)
 number of electron     792.0002650 magnetization
 augmentation part      207.3340525 magnetization

 Broyden mixing:
  rms(total) = 0.46146E+01    rms(broyden)= 0.46143E+01
  rms(prec ) = 0.48078E+01
  weight for this iteration     100.00

 eigenvalues of (default mixing * dielectric matrix)
  average eigenvalue GAMMA=   1.8440
  0.7375  2.9506

 Free energy of the ion-electron system (eV)
  ---------------------------------------------------
  alpha Z        PSCENC =      3563.47650690
  Ewald energy   TEWEN  =    -48580.05829435
  -Hartree energ DENC   =    -18916.73140981
  -exchange      EXHF   =         0.00000000
  -V(xc)+E(xc)   XCENC  =      3318.78042082
  PAW double counting   =     75313.38205740   -75556.67250574
  entropy T*S    EENTRO =        -0.00000000
  eigenvalues    EBANDS =     -8770.32005351
  atomic energy  EATOM  =     68656.39924158
  Solvation  Ediel_sol  =         0.00000000
  ---------------------------------------------------
  free energy    TOTEN  =      -971.74403671 eV

  energy without entropy =     -971.74403671  energy(sigma->0) =     -971.74403671


--------------------------------------------------------------------------------------------------------




--------------------------------------- Iteration      1(   8)  ---------------------------------------


    POTLOK:  cpu time      0.2081: real time      0.2105
    SETDIJ:  cpu time      0.0088: real time      0.0089
     EDDAV:  cpu time     17.7268: real time     17.9132
       DOS:  cpu time      0.0041: real time      0.0041
    CHARGE:  cpu time      0.2320: real time      0.2381
    MIXING:  cpu time      0.0124: real time      0.0125
    --------------------------------------------
      LOOP:  cpu time     18.1923: real time     18.3873

 eigenvalue-minimisations  :  4952
 total energy-change (2. order) :-0.3602206E-01  (-0.1102314E+02)
 number of electron     792.0002586 magnetization
 augmentation part      215.5739997 magnetization

 Broyden mixing:
  rms(total) = 0.33698E+01    rms(broyden)= 0.33696E+01
  rms(prec ) = 0.36696E+01
  weight for this iteration     100.00

 eigenvalues of (default mixing * dielectric matrix)
  average eigenvalue GAMMA=   1.2331
  2.1750  0.9266  0.5977

 Free energy of the ion-electron system (eV)
  ---------------------------------------------------
  alpha Z        PSCENC =      3563.47650690
  Ewald energy   TEWEN  =    -48580.05829435
  -Hartree energ DENC   =    -18539.96687368
  -exchange      EXHF   =         0.00000000
  -V(xc)+E(xc)   XCENC  =      3304.02495389
  PAW double counting   =     93970.13693348   -94285.63168595
  entropy T*S    EENTRO =        -0.00000000
  eigenvalues    EBANDS =     -9060.16084063
  atomic energy  EATOM  =     68656.39924158
  Solvation  Ediel_sol  =         0.00000000
  ---------------------------------------------------
  free energy    TOTEN  =      -971.78005877 eV

  energy without entropy =     -971.78005877  energy(sigma->0) =     -971.78005877


--------------------------------------------------------------------------------------------------------




--------------------------------------- Iteration      1(   9)  ---------------------------------------


    POTLOK:  cpu time      0.2065: real time      0.2087
    SETDIJ:  cpu time      0.0118: real time      0.0119
     EDDAV:  cpu time     18.2459: real time     18.4386
       DOS:  cpu time      0.0051: real time      0.0052
    CHARGE:  cpu time      0.2328: real time      0.2397
    MIXING:  cpu time      0.0125: real time      0.0130
    --------------------------------------------
      LOOP:  cpu time     18.7146: real time     18.9171

 eigenvalue-minimisations  :  5096
 total energy-change (2. order) : 0.5546625E+01  (-0.3435179E+01)
 number of electron     792.0002633 magnetization
 augmentation part      211.5002064 magnetization

 Broyden mixing:
  rms(total) = 0.27840E+00    rms(broyden)= 0.27771E+00
  rms(prec ) = 0.30463E+00
  weight for this iteration     100.00

 eigenvalues of (default mixing * dielectric matrix)
  average eigenvalue GAMMA=   1.1092
  2.1659  0.8092  0.8092  0.6524

 Free energy of the ion-electron system (eV)
  ---------------------------------------------------
  alpha Z        PSCENC =      3563.47650690
  Ewald energy   TEWEN  =    -48580.05829435
  -Hartree energ DENC   =    -18683.89738930
  -exchange      EXHF   =         0.00000000
  -V(xc)+E(xc)   XCENC  =      3308.90082404
  PAW double counting   =     88717.95646679   -89014.37952743
  entropy T*S    EENTRO =        -0.00000000
  eigenvalues    EBANDS =     -8934.63126191
  atomic energy  EATOM  =     68656.39924158
  Solvation  Ediel_sol  =         0.00000000
  ---------------------------------------------------
  free energy    TOTEN  =      -966.23343368 eV

  energy without entropy =     -966.23343368  energy(sigma->0) =     -966.23343368


--------------------------------------------------------------------------------------------------------




--------------------------------------- Iteration      1(  10)  ---------------------------------------


    POTLOK:  cpu time      0.2099: real time      0.2128
    SETDIJ:  cpu time      0.0082: real time      0.0083
     EDDAV:  cpu time     18.4350: real time     18.6213
       DOS:  cpu time      0.0043: real time      0.0043
    CHARGE:  cpu time      0.2307: real time      0.2384
    MIXING:  cpu time      0.0130: real time      0.0131
    --------------------------------------------
      LOOP:  cpu time     18.9011: real time     19.0981

 eigenvalue-minimisations  :  5200
 total energy-change (2. order) :-0.3065233E-01  (-0.8004091E-01)
 number of electron     792.0002628 magnetization
 augmentation part      211.4929747 magnetization

 Broyden mixing:
  rms(total) = 0.20135E+00    rms(broyden)= 0.20128E+00
  rms(prec ) = 0.21780E+00
  weight for this iteration     100.00

 eigenvalues of (default mixing * dielectric matrix)
  average eigenvalue GAMMA=   1.2760
  2.4417  1.6848  1.0765  0.6526  0.5245

 Free energy of the ion-electron system (eV)
  ---------------------------------------------------
  alpha Z        PSCENC =      3563.47650690
  Ewald energy   TEWEN  =    -48580.05829435
  -Hartree energ DENC   =    -18706.05886721
  -exchange      EXHF   =         0.00000000
  -V(xc)+E(xc)   XCENC  =      3310.44396781
  PAW double counting   =     88832.93650358   -89131.25577246
  entropy T*S    EENTRO =        -0.00000000
  eigenvalues    EBANDS =     -8912.14737186
  atomic energy  EATOM  =     68656.39924158
  Solvation  Ediel_sol  =         0.00000000
  ---------------------------------------------------
  free energy    TOTEN  =      -966.26408601 eV

  energy without entropy =     -966.26408601  energy(sigma->0) =     -966.26408601


--------------------------------------------------------------------------------------------------------




--------------------------------------- Iteration      1(  11)  ---------------------------------------


    POTLOK:  cpu time      0.1998: real time      0.2019
    SETDIJ:  cpu time      0.0223: real time      0.0226
     EDDAV:  cpu time     16.5182: real time     16.6946
       DOS:  cpu time      0.0039: real time      0.0039
    CHARGE:  cpu time      0.2364: real time      0.2405
    MIXING:  cpu time      0.0139: real time      0.0143
    --------------------------------------------
      LOOP:  cpu time     16.9945: real time     17.1778

 eigenvalue-minimisations  :  4480
 total energy-change (2. order) :-0.6644662E-01  (-0.5179313E-01)
 number of electron     792.0002618 magnetization
 augmentation part      211.5044878 magnetization

 Broyden mixing:
  rms(total) = 0.22188E+00    rms(broyden)= 0.22185E+00
  rms(prec ) = 0.26769E+00
  weight for this iteration     100.00

 eigenvalues of (default mixing * dielectric matrix)
  average eigenvalue GAMMA=   1.2623
  2.5416  1.8270  1.0091  1.0091  0.5934  0.5934

 Free energy of the ion-electron system (eV)
  ---------------------------------------------------
  alpha Z        PSCENC =      3563.47650690
  Ewald energy   TEWEN  =    -48580.05829435
  -Hartree energ DENC   =    -18747.07406680
  -exchange      EXHF   =         0.00000000
  -V(xc)+E(xc)   XCENC  =      3313.34272990
  PAW double counting   =     89275.63953139   -89578.17931568
  entropy T*S    EENTRO =        -0.00000000
  eigenvalues    EBANDS =     -8869.87686558
  atomic energy  EATOM  =     68656.39924158
  Solvation  Ediel_sol  =         0.00000000
  ---------------------------------------------------
  free energy    TOTEN  =      -966.33053263 eV

  energy without entropy =     -966.33053263  energy(sigma->0) =     -966.33053263


--------------------------------------------------------------------------------------------------------




--------------------------------------- Iteration      1(  12)  ---------------------------------------


    POTLOK:  cpu time      0.1908: real time      0.1926
    SETDIJ:  cpu time      0.0095: real time      0.0096
     EDDAV:  cpu time     19.0232: real time     19.1998
       DOS:  cpu time      0.0018: real time      0.0018
    CHARGE:  cpu time      0.2298: real time      0.2336
    MIXING:  cpu time      0.0142: real time      0.0143
    --------------------------------------------
      LOOP:  cpu time     19.4694: real time     19.6517

 eigenvalue-minimisations  :  5312
 total energy-change (2. order) : 0.5806566E-01  (-0.5209530E-01)
 number of electron     792.0002627 magnetization
 augmentation part      211.1909501 magnetization

 Broyden mixing:
  rms(total) = 0.52993E-01    rms(broyden)= 0.52869E-01
  rms(prec ) = 0.62249E-01
  weight for this iteration     100.00

 eigenvalues of (default mixing * dielectric matrix)
  average eigenvalue GAMMA=   1.2478
  2.6020  1.5672  1.5672  0.9131  0.9131  0.5860  0.5860

 Free energy of the ion-electron system (eV)
  ---------------------------------------------------
  alpha Z        PSCENC =      3563.47650690
  Ewald energy   TEWEN  =    -48580.05829435
  -Hartree energ DENC   =    -18744.47779637
  -exchange      EXHF   =         0.00000000
  -V(xc)+E(xc)   XCENC  =      3312.71097526
  PAW double counting   =     89328.57540456   -89630.41773500
  entropy T*S    EENTRO =        -0.00000000
  eigenvalues    EBANDS =     -8872.48076953
  atomic energy  EATOM  =     68656.39924158
  Solvation  Ediel_sol  =         0.00000000
  ---------------------------------------------------
  free energy    TOTEN  =      -966.27246697 eV

  energy without entropy =     -966.27246697  energy(sigma->0) =     -966.27246697


--------------------------------------------------------------------------------------------------------




--------------------------------------- Iteration      1(  13)  ---------------------------------------


    POTLOK:  cpu time      0.1752: real time      0.1801
    SETDIJ:  cpu time      0.0170: real time      0.0179
     EDDAV:  cpu time     18.8682: real time     19.0539
       DOS:  cpu time      0.0046: real time      0.0046
    CHARGE:  cpu time      0.2375: real time      0.2391
    MIXING:  cpu time      0.0147: real time      0.0149
    --------------------------------------------
      LOOP:  cpu time     19.3172: real time     19.5104

 eigenvalue-minimisations  :  5280
 total energy-change (2. order) : 0.1144629E-02  (-0.2349064E-02)
 number of electron     792.0002626 magnetization
 augmentation part      211.2485257 magnetization

 Broyden mixing:
  rms(total) = 0.17227E-01    rms(broyden)= 0.17214E-01
  rms(prec ) = 0.20254E-01
  weight for this iteration     100.00

 eigenvalues of (default mixing * dielectric matrix)
  average eigenvalue GAMMA=   1.1951
  2.6110  1.7133  1.7133  0.9175  0.7198  0.7198  0.5451  0.6213

 Free energy of the ion-electron system (eV)
  ---------------------------------------------------
  alpha Z        PSCENC =      3563.47650690
  Ewald energy   TEWEN  =    -48580.05829435
  -Hartree energ DENC   =    -18744.82898316
  -exchange      EXHF   =         0.00000000
  -V(xc)+E(xc)   XCENC  =      3312.78799006
  PAW double counting   =     89362.03091198   -89663.88644328
  entropy T*S    EENTRO =        -0.00000000
  eigenvalues    EBANDS =     -8872.19225206
  atomic energy  EATOM  =     68656.39924158
  Solvation  Ediel_sol  =         0.00000000
  ---------------------------------------------------
  free energy    TOTEN  =      -966.27132234 eV

  energy without entropy =     -966.27132234  energy(sigma->0) =     -966.27132234


--------------------------------------------------------------------------------------------------------




--------------------------------------- Iteration      1(  14)  ---------------------------------------


    POTLOK:  cpu time      0.1998: real time      0.2016
    SETDIJ:  cpu time      0.0225: real time      0.0229
     EDDAV:  cpu time     17.8997: real time     18.0531
       DOS:  cpu time      0.0045: real time      0.0045
    CHARGE:  cpu time      0.2302: real time      0.2316
    MIXING:  cpu time      0.0157: real time      0.0158
    --------------------------------------------
      LOOP:  cpu time     18.3724: real time     18.5295

 eigenvalue-minimisations  :  4984
 total energy-change (2. order) : 0.3131124E-04  (-0.8641690E-04)
 number of electron     792.0002625 magnetization
 augmentation part      211.2472261 magnetization

 Broyden mixing:
  rms(total) = 0.11559E-01    rms(broyden)= 0.11559E-01
  rms(prec ) = 0.13609E-01
  weight for this iteration     100.00

 eigenvalues of (default mixing * dielectric matrix)
  average eigenvalue GAMMA=   1.2164
  2.5749  1.7486  1.7486  1.0835  0.9946  0.9946  0.5736  0.5736  0.6559

 Free energy of the ion-electron system (eV)
  ---------------------------------------------------
  alpha Z        PSCENC =      3563.47650690
  Ewald energy   TEWEN  =    -48580.05829435
  -Hartree energ DENC   =    -18745.77503636
  -exchange      EXHF   =         0.00000000
  -V(xc)+E(xc)   XCENC  =      3312.84198225
  PAW double counting   =     89351.92582699   -89653.68173145
  entropy T*S    EENTRO =        -0.00000000
  eigenvalues    EBANDS =     -8871.39978659
  atomic energy  EATOM  =     68656.39924158
  Solvation  Ediel_sol  =         0.00000000
  ---------------------------------------------------
  free energy    TOTEN  =      -966.27129103 eV

  energy without entropy =     -966.27129103  energy(sigma->0) =     -966.27129103


--------------------------------------------------------------------------------------------------------




--------------------------------------- Iteration      1(  15)  ---------------------------------------


    POTLOK:  cpu time      0.2079: real time      0.2096
    SETDIJ:  cpu time      0.0127: real time      0.0127
     EDDAV:  cpu time     18.7721: real time     18.9481
       DOS:  cpu time      0.0046: real time      0.0047
    CHARGE:  cpu time      0.2329: real time      0.2344
    MIXING:  cpu time      0.0159: real time      0.0160
    --------------------------------------------
      LOOP:  cpu time     19.2460: real time     19.4254

 eigenvalue-minimisations  :  5280
 total energy-change (2. order) :-0.1511685E-03  (-0.1195951E-03)
 number of electron     792.0002626 magnetization
 augmentation part      211.2376490 magnetization

 Broyden mixing:
  rms(total) = 0.11494E-01    rms(broyden)= 0.11491E-01
  rms(prec ) = 0.13929E-01
  weight for this iteration     100.00

 eigenvalues of (default mixing * dielectric matrix)
  average eigenvalue GAMMA=   1.2295
  2.6785  2.1467  2.1467  0.9090  0.9090  0.8952  0.8952  0.5839  0.5839  0.5470

 Free energy of the ion-electron system (eV)
  ---------------------------------------------------
  alpha Z        PSCENC =      3563.47650690
  Ewald energy   TEWEN  =    -48580.05829435
  -Hartree energ DENC   =    -18746.72395975
  -exchange      EXHF   =         0.00000000
  -V(xc)+E(xc)   XCENC  =      3312.88054356
  PAW double counting   =     89332.99862770   -89634.57849461
  entropy T*S    EENTRO =        -0.00000000
  eigenvalues    EBANDS =     -8870.66561323
  atomic energy  EATOM  =     68656.39924158
  Solvation  Ediel_sol  =         0.00000000
  ---------------------------------------------------
  free energy    TOTEN  =      -966.27144220 eV

  energy without entropy =     -966.27144220  energy(sigma->0) =     -966.27144220


--------------------------------------------------------------------------------------------------------




--------------------------------------- Iteration      1(  16)  ---------------------------------------


    POTLOK:  cpu time      0.2005: real time      0.2025
    SETDIJ:  cpu time      0.0207: real time      0.0224
     EDDAV:  cpu time     18.7068: real time     18.8945
       DOS:  cpu time      0.0049: real time      0.0049
    CHARGE:  cpu time      0.2343: real time      0.2375
    MIXING:  cpu time      0.0160: real time      0.0161
    --------------------------------------------
      LOOP:  cpu time     19.1832: real time     19.3778

 eigenvalue-minimisations  :  5272
 total energy-change (2. order) : 0.6564063E-04  (-0.1856733E-03)
 number of electron     792.0002625 magnetization
 augmentation part      211.2559502 magnetization

 Broyden mixing:
  rms(total) = 0.61949E-02    rms(broyden)= 0.61908E-02
  rms(prec ) = 0.71295E-02
  weight for this iteration     100.00

 eigenvalues of (default mixing * dielectric matrix)
  average eigenvalue GAMMA=   1.2131
  2.7309  2.5064  1.8611  0.8428  0.8428  0.9620  0.9620  0.9004  0.5832  0.5832
  0.5694

 Free energy of the ion-electron system (eV)
  ---------------------------------------------------
  alpha Z        PSCENC =      3563.47650690
  Ewald energy   TEWEN  =    -48580.05829435
  -Hartree energ DENC   =    -18747.50694111
  -exchange      EXHF   =         0.00000000
  -V(xc)+E(xc)   XCENC  =      3312.94138714
  PAW double counting   =     89331.27282788   -89632.79391687
  entropy T*S    EENTRO =        -0.00000000
  eigenvalues    EBANDS =     -8870.00218772
  atomic energy  EATOM  =     68656.39924158
  Solvation  Ediel_sol  =         0.00000000
  ---------------------------------------------------
  free energy    TOTEN  =      -966.27137656 eV

  energy without entropy =     -966.27137656  energy(sigma->0) =     -966.27137656


--------------------------------------------------------------------------------------------------------




--------------------------------------- Iteration      1(  17)  ---------------------------------------


    POTLOK:  cpu time      0.2062: real time      0.2083
    SETDIJ:  cpu time      0.0150: real time      0.0159
     EDDAV:  cpu time     18.8736: real time     19.0453
       DOS:  cpu time      0.0048: real time      0.0048
    CHARGE:  cpu time      0.2293: real time      0.2351
    MIXING:  cpu time      0.0165: real time      0.0167
    --------------------------------------------
      LOOP:  cpu time     19.3455: real time     19.5261

 eigenvalue-minimisations  :  5312
 total energy-change (2. order) : 0.2520665E-04  (-0.2051791E-04)
 number of electron     792.0002625 magnetization
 augmentation part      211.2504204 magnetization

 Broyden mixing:
  rms(total) = 0.16579E-02    rms(broyden)= 0.16552E-02
  rms(prec ) = 0.20098E-02
  weight for this iteration     100.00

 eigenvalues of (default mixing * dielectric matrix)
  average eigenvalue GAMMA=   1.1796
  2.8164  2.4857  1.8417  1.0289  1.0289  0.8713  0.8713  0.7527  0.7527  0.5815
  0.5815  0.5431

 Free energy of the ion-electron system (eV)
  ---------------------------------------------------
  alpha Z        PSCENC =      3563.47650690
  Ewald energy   TEWEN  =    -48580.05829435
  -Hartree energ DENC   =    -18747.83935255
  -exchange      EXHF   =         0.00000000
  -V(xc)+E(xc)   XCENC  =      3312.95402433
  PAW double counting   =     89324.80380570   -89626.29774321
  entropy T*S    EENTRO =        -0.00000000
  eigenvalues    EBANDS =     -8869.70953976
  atomic energy  EATOM  =     68656.39924158
  Solvation  Ediel_sol  =         0.00000000
  ---------------------------------------------------
  free energy    TOTEN  =      -966.27135135 eV

  energy without entropy =     -966.27135135  energy(sigma->0) =     -966.27135135


--------------------------------------------------------------------------------------------------------




--------------------------------------- Iteration      1(  18)  ---------------------------------------


    POTLOK:  cpu time      0.2098: real time      0.2119
    SETDIJ:  cpu time      0.0098: real time      0.0105
     EDDAV:  cpu time     18.2819: real time     18.4505
       DOS:  cpu time      0.0048: real time      0.0048
    CHARGE:  cpu time      0.2333: real time      0.2356
    MIXING:  cpu time      0.0214: real time      0.0216
    --------------------------------------------
      LOOP:  cpu time     18.7610: real time     18.9348

 eigenvalue-minimisations  :  5112
 total energy-change (2. order) :-0.4740999E-05  (-0.3105906E-05)
 number of electron     792.0002625 magnetization
 augmentation part      211.2511219 magnetization

 Broyden mixing:
  rms(total) = 0.19341E-02    rms(broyden)= 0.19338E-02
  rms(prec ) = 0.23357E-02
  weight for this iteration     100.00

 eigenvalues of (default mixing * dielectric matrix)
  average eigenvalue GAMMA=   1.1702
  2.8839  2.4731  1.8109  1.1298  1.1298  0.9059  0.9059  0.8037  0.8037  0.6828
  0.5704  0.5704  0.5422

 Free energy of the ion-electron system (eV)
  ---------------------------------------------------
  alpha Z        PSCENC =      3563.47650690
  Ewald energy   TEWEN  =    -48580.05829435
  -Hartree energ DENC   =    -18747.89001956
  -exchange      EXHF   =         0.00000000
  -V(xc)+E(xc)   XCENC  =      3312.95651018
  PAW double counting   =     89324.78925978   -89626.28621773
  entropy T*S    EENTRO =        -0.00000000
[...]
      7.58456      3.79228      1.99678    -0.02544  0.04737 -2.89850 ( -0.63457  6.00000)
      7.58456      7.58456      1.99678    -0.02538 -0.04744 -2.89850 ( -0.63457  6.00000)
      0.00000      1.89614      0.40437     0.00000 -0.00196 -2.89383 ( -0.63485  6.00000)
      0.00000      5.68842      0.40437    -0.00001 -0.00003 -2.89957 ( -0.63485  6.00000)
      0.00000      9.48070      0.40437     0.00001  0.00196 -2.89384 ( -0.63485  6.00000)
      3.79228      1.89614      0.40437     0.00564 -0.00337 -2.88246 ( -0.63488  6.00000)
      3.79228      5.68842      0.40437     0.01552  0.00001 -2.86749 ( -0.63508  6.00000)
      3.79228      9.48070      0.40437     0.00565  0.00337 -2.88246 ( -0.63488  6.00000)
      7.58456      1.89614      0.40437    -0.00562 -0.00341 -2.88246 ( -0.63488  6.00000)
      7.58456      5.68842      0.40437    -0.01548 -0.00001 -2.86746 ( -0.63508  6.00000)
      7.58456      9.48070      0.40437    -0.00565  0.00337 -2.88245 ( -0.63488  6.00000)
      1.89614      1.89614      2.80551     0.00925  0.00146 -2.90680 ( -0.63481  6.00000)
      1.89614      5.68842      2.80551    -0.03422  0.00000 -2.90272 ( -0.63488  6.00000)
      1.89614      9.48070      2.80551     0.00924 -0.00145 -2.90680 ( -0.63481  6.00000)
      5.68842      1.89614      2.80551    -0.00003  0.00503 -2.92523 ( -0.63468  6.00000)
      5.68842      5.68842      2.80551    -0.00000 -0.00000 -2.48069 ( -0.62789  6.00000)
      5.68842      9.48070      2.80551    -0.00001 -0.00501 -2.92525 ( -0.63468  6.00000)
      9.48070      1.89614      2.80551    -0.00927  0.00145 -2.90681 ( -0.63481  6.00000)
      9.48070      5.68842      2.80551     0.03419 -0.00001 -2.90273 ( -0.63488  6.00000)
      9.48070      9.48070      2.80551    -0.00925 -0.00144 -2.90679 ( -0.63481  6.00000)
 -----------------------------------------------------------------------------------------
    total drift (improves with k-points):  -0.00033 -0.00008 -0.06928




--------------------------------------------------------------------------------------------------------




 MACROSCOPIC STATIC DIELECTRIC TENSOR (including local field effects in DFT)
 ------------------------------------------------------
           7.001137    -0.000010     0.000009
          -0.000005     6.921249     0.000008
           0.000004     0.000000     6.367849
 ------------------------------------------------------



--------------------------------------------------------------------------------------------------------




--------------------------------------------------------------------------------------------------------




 MACROSCOPIC STATIC DIELECTRIC TENSOR (including local field effects in DFT)
 ------------------------------------------------------
           7.001137    -0.000010     0.000009
          -0.000005     6.921249     0.000008
           0.000004     0.000000     6.367849
 ------------------------------------------------------


 PIEZOELECTRIC TENSOR (including local field effects)  for field in x, y, z        (e  Angst)
          XX          YY          ZZ          XY          YZ          ZX
  --------------------------------------------------------------------------------
  x    -0.00612     0.00324     0.00215     0.00021    -0.00009     0.05015
  y    -0.00107     0.00137    -0.00041     0.00041     0.13658     0.00030
  z     1.41710     1.00967    -0.25456     0.00002    -0.00014    -0.00008

 PIEZOELECTRIC TENSOR (including local field effects)  for field in x, y, z        (C/m^2)
          XX          YY          ZZ          XY          YZ          ZX
  --------------------------------------------------------------------------------
  x    -0.00008     0.00004     0.00003     0.00000    -0.00000     0.00065
  y    -0.00001     0.00002    -0.00001     0.00001     0.00176     0.00000
  z     0.01826     0.01301    -0.00328     0.00000    -0.00000    -0.00000

 BORN EFFECTIVE CHARGES (including local field effects) (in |e|, cummulative output)
 ---------------------------------------------------------------------------------
 ion    1
    1     6.69288     0.00568     0.00067
    2    -0.00760     6.62424    -0.00091
    3     0.01830     0.01486     5.78785
 ion    2
    1     6.68957    -0.00002     0.00026
    2     0.00007     6.64402     0.00001
    3     0.04247     0.00004     5.72250
 ion    3
    1     6.69286    -0.00563     0.00066
    2     0.00753     6.62420     0.00092
    3     0.01828    -0.01482     5.78785
 ion    4
    1     6.66164     0.00002    -0.00005
    2     0.00003     6.55105     0.00442
    3    -0.00002     0.05461     5.82904
 ion    5
    1     5.88241     0.00006     0.00001
    2    -0.00007     7.16565    -0.00003
    3     0.00003     0.00000     5.73129
 ion    6
    1     6.66156    -0.00005    -0.00003
    2    -0.00000     6.55105    -0.00439
    3     0.00000    -0.05462     5.82904
 ion    7
    1     6.69287    -0.00569    -0.00071
    2     0.00765     6.62421    -0.00091
    3    -0.01828     0.01484     5.78787
 ion    8
    1     6.68959     0.00001    -0.00036
    2    -0.00004     6.64404    -0.00003
    3    -0.04249     0.00004     5.72255
 ion    9
    1     6.69291     0.00569    -0.00073
    2    -0.00759     6.62419     0.00089
    3    -0.01834    -0.01483     5.78784
 ion   10
    1     6.68388    -0.00004    -0.00004
    2     0.00002     6.64133    -0.00001
    3     0.00223    -0.00000     5.78694
 ion   11
    1     6.70295     0.00905     0.00076
    2    -0.06162     6.70115     0.00377
    3    -0.04092     0.00612     5.79179
 ion   12
    1     6.70290    -0.00898     0.00075
    2     0.06160     6.70116    -0.00383
    3    -0.04088    -0.00612     5.79179
 ion   13
    1     6.65851     0.00001     0.00003
    2    -0.00003     6.60600    -0.00006
    3     0.00002    -0.00005     5.78387
 ion   14
    1     6.69694    -0.00001     0.00004
    2     0.00002     6.15547     0.03701
    3     0.00001    -0.03889     5.77497
 ion   15
    1     6.69693     0.00000     0.00003
    2     0.00002     6.15551    -0.03698
    3     0.00002     0.03890     5.77498
 ion   16
    1     6.68396    -0.00006     0.00018
    2    -0.00005     6.64132     0.00001
    3    -0.00213    -0.00000     5.78693
 ion   17
    1     6.70291    -0.00901    -0.00072
    2     0.06163     6.70117     0.00377
    3     0.04095     0.00611     5.79178
 ion   18
    1     6.70291     0.00902    -0.00077
    2    -0.06157     6.70117    -0.00381
    3     0.04098    -0.00609     5.79179
 ion   19
    1     6.66665    -0.00001     0.00000
    2    -0.00002     6.64935    -0.00001
    3    -0.00001    -0.00002     5.78660
 ion   20
    1     6.67849    -0.00003    -0.00001
    2    -0.00003     6.68779    -0.00055
    3    -0.00001    -0.00250     5.80756
 ion   21
    1     6.67843    -0.00005     0.00002
    2     0.00000     6.68774     0.00057
    3    -0.00001     0.00255     5.80755
 ion   22
    1     6.63350    -0.00003    -0.00070
    2    -0.00004     6.64553     0.00005
    3    -0.00102     0.00003     5.76305
 ion   23
    1     6.57645     0.02948    -0.00594
    2    -0.03124     6.74463     0.00393
    3    -0.02915    -0.03362     5.77064
 ion   24
    1     6.57642    -0.02954    -0.00584
    2     0.03121     6.74463    -0.00387
    3    -0.02913     0.03360     5.77064
 ion   25
    1     6.63351    -0.00000     0.00080
    2    -0.00001     6.64555    -0.00001
    3     0.00104     0.00001     5.76305
 ion   26
    1     6.57648    -0.02954     0.00595
    2     0.03122     6.74462     0.00397
    3     0.02914    -0.03355     5.77063
 ion   27
    1     6.57644     0.02946     0.00591
    2    -0.03127     6.74458    -0.00391
    3     0.02914     0.03363     5.77063
 ion   28
    1     6.68189    -0.00007    -0.00002
    2     0.00001     6.63739     0.00033
    3     0.00001    -0.00082     5.78731
 ion   29
    1     6.73807    -0.00001    -0.00004
    2    -0.00006     6.65090    -0.00002
    3    -0.00000    -0.00000     5.77899
 ion   30
    1     6.68190    -0.00000     0.00000
    2    -0.00004     6.63744    -0.00037
    3     0.00003     0.00083     5.78731
 ion   31
    1     6.62320     0.05672    -0.00169
    2    -0.00900     6.61421    -0.00080
    3     0.00637    -0.05338     5.79278
 ion   32
    1     7.07808     0.00006    -0.03671
    2    -0.00006     6.59186    -0.00004
    3    -0.16091    -0.00003     5.78056
 ion   33
    1     6.62329    -0.05664    -0.00167
    2     0.00899     6.61422     0.00081
    3     0.00635     0.05337     5.79279
 ion   34
    1     6.62320    -0.05670     0.00168
    2     0.00903     6.61422    -0.00080
    3    -0.00630    -0.05335     5.79277
 ion   35
    1     7.07794    -0.00002     0.03678
    2    -0.00001     6.59197     0.00002
    3     0.16090     0.00000     5.78056
 ion   36
    1     6.62328     0.05662     0.00167
    2    -0.00904     6.61418     0.00078
    3    -0.00634     0.05337     5.79280
 ion   37
    1    -5.55784     0.00004     0.00002
    2     0.00001    -1.11500     0.00414
    3    -0.00001    -0.00123    -2.89846
 ion   38
    1    -5.60511     0.00005     0.00007
    2     0.00000    -1.13526     0.00002
    3     0.00002    -0.00000    -2.88837
 ion   39
    1    -5.55790    -0.00009     0.00003
    2    -0.00001    -1.11502    -0.00415
    3     0.00001     0.00122    -2.89848
 ion   40
    1    -5.55484    -0.00643    -0.01705
    2     0.02064    -1.11730     0.00630
    3    -0.01590    -0.00409    -2.90007
 ion   41
    1    -5.23648    -0.00003     0.03052
    2    -0.00003    -1.14222     0.00006
    3    -0.09609     0.00001    -2.92869
 ion   42
    1    -5.55477     0.00645    -0.01702
    2    -0.02059    -1.11728    -0.00633
    3    -0.01593     0.00407    -2.90008
 ion   43
    1    -5.55488     0.00645     0.01711
    2    -0.02072    -1.11728     0.00630
    3     0.01592    -0.00408    -2.90008
 ion   44
    1    -5.23639    -0.00005    -0.03042
    2     0.00003    -1.14223    -0.00005
    3     0.09609    -0.00000    -2.92869
 ion   45
    1    -5.55484    -0.00642     0.01707
    2     0.02066    -1.11729    -0.00627
    3     0.01594     0.00406    -2.90008
 ion   46
    1    -1.13464     0.00097    -0.00052
    2     0.00232    -5.52068    -0.00130
    3     0.00010     0.00974    -2.88316
 ion   47
    1    -1.14271    -0.00003    -0.00194
    2     0.00000    -5.61463    -0.00000
    3     0.00587    -0.00001    -2.86374
 ion   48
    1    -1.13462    -0.00098    -0.00049
    2    -0.00233    -5.52073     0.00130
    3     0.00009    -0.00975    -2.88317
 ion   49
    1    -1.10403    -0.00002    -0.00001
    2    -0.00000    -5.40650     0.00825
    3    -0.00002    -0.03321    -2.89426
 ion   50
    1    -0.96844     0.00001    -0.00003
    2     0.00002    -4.94532    -0.00004
    3    -0.00002    -0.00003    -3.24807
 ion   51
    1    -1.10401    -0.00003    -0.00002
    2     0.00002    -5.40650    -0.00823
    3     0.00000     0.03324    -2.89427
 ion   52
    1    -1.13459    -0.00098     0.00051
    2    -0.00228    -5.52073    -0.00129
    3    -0.00010     0.00976    -2.88315
 ion   53
    1    -1.14272     0.00001     0.00191
    2    -0.00001    -5.61469     0.00003
    3    -0.00590    -0.00001    -2.86375
 ion   54
    1    -1.13464     0.00096     0.00054
    2     0.00231    -5.52070     0.00131
    3    -0.00011    -0.00976    -2.88314
 ion   55
    1    -1.13097    -0.00004     0.00375
    2     0.00002    -5.51828    -0.00002
    3    -0.00187    -0.00000    -2.89065
 ion   56
    1    -1.12309    -0.01844     0.00417
    2     0.00680    -5.51039    -0.02161
    3    -0.00300    -0.00901    -2.89478
 ion   57
    1    -1.12310     0.01842     0.00418
    2    -0.00686    -5.51030     0.02156
    3    -0.00301     0.00897    -2.89478
 ion   58
    1    -1.11357     0.00002     0.00003
    2    -0.00003    -5.45156     0.00002
    3     0.00001    -0.00000    -2.89844
 ion   59
    1    -1.11781     0.00000     0.00000
    2     0.00003    -5.61777    -0.05750
    3     0.00000    -0.12980    -2.82775
 ion   60
    1    -1.11782    -0.00005    -0.00001
    2    -0.00005    -5.61791     0.05749
    3     0.00000     0.12980    -2.82773
 ion   61
    1    -1.13097    -0.00001    -0.00378
    2    -0.00006    -5.51821    -0.00003
    3     0.00185     0.00000    -2.89066
 ion   62
    1    -1.12311     0.01834    -0.00417
    2    -0.00690    -5.51035    -0.02158
    3     0.00301    -0.00899    -2.89479
 ion   63
    1    -1.12309    -0.01837    -0.00418
    2     0.00690    -5.51035     0.02158
    3     0.00301     0.00896    -2.89480
 ion   64
    1    -5.55259     0.00007    -0.00008
    2     0.00000    -1.11937    -0.00000
    3    -0.00002     0.00002    -2.89177
 ion   65
    1    -5.55736    -0.00003     0.00001
    2    -0.00002    -1.12727    -0.00756
    3    -0.00000    -0.00205    -2.89815
 ion   66
    1    -5.55733    -0.00002    -0.00002
    2    -0.00002    -1.12724     0.00755
    3    -0.00004     0.00204    -2.89815
 ion   67
    1    -5.54658    -0.00003     0.01138
    2    -0.00001    -1.12189    -0.00005
    3    -0.01294    -0.00002    -2.87881
 ion   68
    1    -5.57439    -0.01387     0.05584
    2     0.13726    -1.11395    -0.03445
    3     0.01672     0.01669    -2.87278
 ion   69
    1    -5.57438     0.01390     0.05584
    2    -0.13725    -1.11401     0.03446
    3     0.01671    -0.01664    -2.87275
 ion   70
    1    -5.54667    -0.00003    -0.01152
    2     0.00006    -1.12186    -0.00001
    3     0.01289     0.00002    -2.87885
 ion   71
    1    -5.57439     0.01387    -0.05590
    2    -0.13729    -1.11400    -0.03447
    3    -0.01675     0.01664    -2.87277
 ion   72
    1    -5.57439    -0.01382    -0.05584
    2     0.13725    -1.11397     0.03445
    3    -0.01676    -0.01665    -2.87274
 ion   73
    1    -5.54295     0.00000    -0.00081
    2    -0.00000    -1.11843    -0.00001
    3    -0.00169    -0.00001    -2.89308
 ion   74
    1    -5.55324    -0.00251    -0.00107
    2     0.01632    -1.12966    -0.01073
    3    -0.00589     0.00542    -2.90357
 ion   75
    1    -5.55324     0.00252    -0.00113
    2    -0.01633    -1.12965     0.01075
    3    -0.00590    -0.00542    -2.90357
 ion   76
    1    -5.49018     0.00006     0.00003
    2    -0.00003    -1.11630     0.00002
    3     0.00001     0.00001    -2.88401
 ion   77
    1    -5.39476     0.00002    -0.00003
    2    -0.00000    -1.11847    -0.06290
    3    -0.00000     0.01489    -2.90086
 ion   78
    1    -5.39467    -0.00002    -0.00003
    2     0.00003    -1.11849     0.06293
    3    -0.00001    -0.01490    -2.90087
 ion   79
    1    -5.54305     0.00000     0.00073
    2     0.00004    -1.11847     0.00003
    3     0.00165     0.00001    -2.89308
 ion   80
    1    -5.55326     0.00255     0.00111
    2    -0.01630    -1.12963    -0.01069
    3     0.00588     0.00546    -2.90357
 ion   81
    1    -5.55322    -0.00251     0.00114
    2     0.01632    -1.12965     0.01072
    3     0.00590    -0.00544    -2.90358
 ion   82
    1    -1.12577     0.00002    -0.00001
    2    -0.00003    -5.52414     0.00006
    3    -0.00001    -0.00000    -2.89388
 ion   83
    1    -1.12474     0.00004    -0.00003
    2     0.00002    -5.52432     0.01115
    3     0.00000    -0.01011    -2.90564
 ion   84
    1    -1.12470    -0.00001     0.00002
    2     0.00003    -5.52435    -0.01113
    3    -0.00000     0.01007    -2.90564
 ion   85
    1    -1.11993    -0.00004    -0.00703
    2     0.00004    -5.51831     0.00000
    3    -0.00228    -0.00001    -2.88947
 ion   86
    1    -1.12727    -0.12650    -0.02535
    2     0.01485    -5.48374     0.05452
    3     0.02539     0.04744    -2.89786
 ion   87
    1    -1.12726     0.12648    -0.02542
    2    -0.01488    -5.48379    -0.05446
    3     0.02538    -0.04740    -2.89785
 ion   88
    1    -1.11992    -0.00000     0.00704
    2    -0.00002    -5.51831     0.00001
    3     0.00229     0.00000    -2.88945
 ion   89
    1    -1.12724     0.12653     0.02536
    2    -0.01483    -5.48381     0.05449
    3    -0.02543     0.04737    -2.89786
 ion   90
    1    -1.12727    -0.12643     0.02539
    2     0.01494    -5.48376    -0.05444
    3    -0.02538    -0.04744    -2.89786
 ion   91
    1    -1.12705     0.00001     0.00002
    2     0.00002    -5.53189    -0.00094
    3     0.00000    -0.00196    -2.89319
 ion   92
    1    -1.13010     0.00006    -0.00003
    2     0.00000    -5.58418    -0.00002
    3    -0.00001    -0.00003    -2.89893
 ion   93
    1    -1.12707     0.00003     0.00002
    2     0.00002    -5.53188     0.00096
    3     0.00001     0.00196    -2.89320
 ion   94
    1    -1.11720    -0.01635    -0.00906
    2     0.00258    -5.52322    -0.00109
    3     0.00564    -0.00337    -2.88182
 ion   95
    1    -1.12997     0.00004    -0.05765
    2     0.00005    -5.67804    -0.00005
    3     0.01552     0.00001    -2.86684
 ion   96
    1    -1.11724     0.01641    -0.00909
    2    -0.00256    -5.52325     0.00106
    3     0.00565     0.00338    -2.88182
 ion   97
    1    -1.11719     0.01646     0.00902
    2    -0.00253    -5.52320    -0.00116
    3    -0.00562    -0.00341    -2.88181
 ion   98
    1    -1.13000    -0.00000     0.05766
    2    -0.00007    -5.67809    -0.00003
    3    -0.01547    -0.00001    -2.86682
 ion   99
    1    -1.11717    -0.01634     0.00904
    2     0.00257    -5.52319     0.00112
    3    -0.00565     0.00337    -2.88180
 ion  100
    1    -5.55480    -0.00187    -0.00124
    2    -0.00127    -1.11267    -0.00020
    3     0.00925     0.00146    -2.90616
 ion  101
    1    -5.65720    -0.00005     0.00225
    2     0.00006    -1.13397     0.00002
    3    -0.03422     0.00001    -2.90208
 ion  102
    1    -5.55481     0.00186    -0.00120
    2     0.00131    -1.11268     0.00019
    3     0.00924    -0.00145    -2.90616
 ion  103
    1    -5.46516    -0.00005     0.00002
    2    -0.00001    -1.10403     0.00201
    3    -0.00003     0.00503    -2.92459
 ion  104
    1    -6.08066     0.00002    -0.00008
    2     0.00001    -1.21282    -0.00001
    3     0.00000    -0.00000    -2.48005
 ion  105
    1    -5.46524    -0.00002    -0.00000
    2     0.00005    -1.10403    -0.00200
    3    -0.00001    -0.00501    -2.92461
 ion  106
    1    -5.55480     0.00185     0.00126
    2     0.00128    -1.11267    -0.00017
    3    -0.00927     0.00145    -2.90617
 ion  107
    1    -5.65717    -0.00001    -0.00219
    2     0.00004    -1.13399     0.00001
    3     0.03419    -0.00001    -2.90209
 ion  108
    1    -5.55486    -0.00180     0.00122
    2    -0.00125    -1.11265     0.00020
    3    -0.00925    -0.00144    -2.90615


--------------------------------------------------------------------------------------------------------


     LOOP+:  cpu time   1761.8012: real time   1828.2033
    4ORBIT:  cpu time      0.0000: real time      0.0000

 total amount of memory used by VASP MPI-rank0   266725. kBytes
=======================================================================

   base      :      30000. kBytes
   nonlr-proj:      19556. kBytes
   fftplans  :      10927. kBytes
   grid      :      23181. kBytes
   one-center:       1679. kBytes
   wavefun   :     181382. kBytes



 General timing and accounting informations for this job:
 ========================================================

                  Total CPU time used (sec):     1773.046
                            User time (sec):     1704.347
                          System time (sec):       68.699
                         Elapsed time (sec):     1850.387

                   Maximum memory used (kb):     1088060.
                   Average memory used (kb):          N/A

                          Minor page faults:      2444643
                          Major page faults:           12
                 Voluntary context switches:       135965
