 vasp.6.3.0 20Jan22 (build Mar 29 2022 16:24:06) complex

 executed on             Bridges2 date 2023.01.10  17:19:34
 running on   32 total cores
 distrk:  each k-point on    4 cores,    8 groups
 distr:  one band on NCORE=   1 cores,    4 groups


--------------------------------------------------------------------------------------------------------


 INCAR:
   ICHARG = 2
   LWAVE = .FALSE.
   LCHARG = .FALSE.
   LVTOT = .FALSE.
   NCORE = 1
   KPAR = 8
   EDIFF = 1E-7
   NELM = 80
   PREC = Normal
   LREAL = Auto
   NELMIN = 4
   ENCUT = 400.0 eV
   ISPIN = 1
   ISMEAR = 0
   SIGMA = 0.10
   NSW = 0
   LEPSILON = .TRUE.
   LPEAD = .TRUE.
   ISYM = 0

 POTCAR:    PAW_PBE Ti_pv 07Sep2000
 POTCAR:    PAW_PBE O 08Apr2002
 -----------------------------------------------------------------------------
|                                                                             |
|           W    W    AA    RRRRR   N    N  II  N    N   GGGG   !!!           |
|           W    W   A  A   R    R  NN   N  II  NN   N  G    G  !!!           |
|           W    W  A    A  R    R  N N  N  II  N N  N  G       !!!           |
|           W WW W  AAAAAA  RRRRR   N  N N  II  N  N N  G  GGG   !            |
|           WW  WW  A    A  R   R   N   NN  II  N   NN  G    G                |
|           W    W  A    A  R    R  N    N  II  N    N   GGGG   !!!           |
|                                                                             |
|     For optimal performance we recommend to set                             |
|       NCORE = 2 up to number-of-cores-per-socket                            |
|     NCORE specifies how many cores store one orbital (NPAR=cpu/NCORE).      |
|     This setting can greatly improve the performance of VASP for DFT.       |
|     The default, NCORE=1 might be grossly inefficient on modern             |
|     multi-core architectures or massively parallel machines. Do your        |
|     own testing! More info at https://www.vasp.at/wiki/index.php/NCORE      |
|     Unfortunately you need to use the default for GW and RPA                |
|     calculations (for HF NCORE is supported but not extensively tested      |
|     yet).                                                                   |
|                                                                             |
 -----------------------------------------------------------------------------

 POTCAR:    PAW_PBE Ti_pv 07Sep2000
   VRHFIN =Ti: d3 s1
   LEXCH  = PE
   EATOM  =  1042.5995 eV,   76.6289 Ry

   TITEL  = PAW_PBE Ti_pv 07Sep2000
   LULTRA =        F    use ultrasoft PP ?
   IUNSCR =        1    unscreen: 0-lin 1-nonlin 2-no
   RPACOR =    2.200    partial core radius
   POMASS =   47.880; ZVAL   =   10.000    mass and valenz
   RCORE  =    2.500    outmost cutoff radius
   RWIGS  =    2.500; RWIGS  =    1.323    wigner-seitz radius (au A)
   ENMAX  =  222.335; ENMIN  =  166.751 eV
   RCLOC  =    1.701    cutoff for local pot
   LCOR   =        T    correct aug charges
   LPAW   =        T    paw PP
   EAUG   =  482.848
   DEXC   =    0.000
   RMAX   =    2.564    core radius for proj-oper
   RAUG   =    1.300    factor for augmentation sphere
   RDEP   =    2.538    radius for radial grids
   RDEPT  =    1.952    core radius for aug-charge

   Atomic configuration
    8 entries
     n  l   j            E        occ.
     1  0  0.50     -4865.3608   2.0000
     2  0  0.50      -533.1368   2.0000
     2  1  1.50      -440.5031   6.0000
     3  0  0.50       -59.3186   2.0000
     3  1  1.50       -35.7012   6.0000
     3  2  2.50        -1.9157   3.0000
     4  0  0.50        -3.7291   1.0000
     4  3  2.50        -1.3606   0.0000
   Description
     l       E           TYP  RCUT    TYP  RCUT
     1    -35.7012140     23  2.300
     1     -1.3605826     23  2.300
     2     -1.9156996     23  2.500
     2     -0.4063033     23  2.500
     0     -3.7290856     23  2.500
     0     20.4087390     23  2.500
  local pseudopotential read in
  partial core-charges read in
  partial kinetic energy density read in
  atomic valenz-charges read in
  non local Contribution for L=           1  read in
    real space projection operators read in
  non local Contribution for L=           1  read in
    real space projection operators read in
  non local Contribution for L=           2  read in
    real space projection operators read in
  non local Contribution for L=           2  read in
    real space projection operators read in
  non local Contribution for L=           0  read in
    real space projection operators read in
  non local Contribution for L=           0  read in
    real space projection operators read in
    PAW grid and wavefunctions read in

   number of l-projection  operators is LMAX  =           6
   number of lm-projection operators is LMMAX =          18

 POTCAR:    PAW_PBE O 08Apr2002
   VRHFIN =O: s2p4
   LEXCH  = PE
   EATOM  =   432.3788 eV,   31.7789 Ry

   TITEL  = PAW_PBE O 08Apr2002
   LULTRA =        F    use ultrasoft PP ?
   IUNSCR =        1    unscreen: 0-lin 1-nonlin 2-no
   RPACOR =    1.200    partial core radius
   POMASS =   16.000; ZVAL   =    6.000    mass and valenz
   RCORE  =    1.520    outmost cutoff radius
   RWIGS  =    1.550; RWIGS  =    0.820    wigner-seitz radius (au A)
   ENMAX  =  400.000; ENMIN  =  300.000 eV
   ICORE  =        2    local potential
   LCOR   =        T    correct aug charges
   LPAW   =        T    paw PP
   EAUG   =  605.392
   DEXC   =    0.000
   RMAX   =    1.553    core radius for proj-oper
   RAUG   =    1.300    factor for augmentation sphere
   RDEP   =    1.550    radius for radial grids
   RDEPT  =    1.329    core radius for aug-charge

   Atomic configuration
    4 entries
     n  l   j            E        occ.
     1  0  0.50      -514.6923   2.0000
     2  0  0.50       -23.9615   2.0000
     2  1  0.50        -9.0305   4.0000
     3  2  1.50        -9.5241   0.0000
   Description
     l       E           TYP  RCUT    TYP  RCUT
     0    -23.9615318     23  1.200
     0     -9.5240782     23  1.200
     1     -9.0304911     23  1.520
     1      8.1634956     23  1.520
     2     -9.5240782      7  1.500
  local pseudopotential read in
  partial core-charges read in
  partial kinetic energy density read in
  kinetic energy density of atom read in
  atomic valenz-charges read in
  non local Contribution for L=           0  read in
    real space projection operators read in
  non local Contribution for L=           0  read in
    real space projection operators read in
  non local Contribution for L=           1  read in
    real space projection operators read in
  non local Contribution for L=           1  read in
    real space projection operators read in
    PAW grid and wavefunctions read in

   number of l-projection  operators is LMAX  =           4
   number of lm-projection operators is LMMAX =           8

 Optimization of the real space projectors (new method)

 maximal supplied QI-value         = 15.12
 optimisation between [QCUT,QGAM] = [ 10.13, 20.41] = [ 28.73,116.64] Ry
 Optimized for a Real-space Cutoff    1.51 Angstroem

   l    n(q)    QCUT    max X(q) W(low)/X(q) W(high)/X(q)  e(spline)
   1      9    10.129     4.216    0.12E-04    0.72E-04    0.60E-07
   1      9    10.129     5.422    0.84E-04    0.21E-03    0.15E-06
   2      8    10.129    72.084    0.33E-03    0.35E-04    0.17E-06
   2      8    10.129    65.965    0.33E-03    0.37E-04    0.17E-06
   0      9    10.129    41.531    0.17E-03    0.19E-03    0.81E-07
   0      9    10.129    16.290    0.12E-03    0.14E-03    0.64E-07
 Optimization of the real space projectors (new method)

 maximal supplied QI-value         = 24.76
 optimisation between [QCUT,QGAM] = [ 10.15, 20.30] = [ 28.85,115.39] Ry
 Optimized for a Real-space Cutoff    1.38 Angstroem

   l    n(q)    QCUT    max X(q) W(low)/X(q) W(high)/X(q)  e(spline)
   0      8    10.150    20.381    0.22E-03    0.32E-03    0.29E-06
   0      8    10.150    15.268    0.23E-03    0.35E-03    0.30E-06
   1      8    10.150     5.964    0.46E-03    0.53E-03    0.21E-06
   1      8    10.150     5.382    0.38E-03    0.45E-03    0.19E-06
  PAW_PBE Ti_pv 07Sep2000               :
 energy of atom  1       EATOM=-1042.5995
 kinetic energy error for atom=    0.0037 (will be added to EATOM!!)
  PAW_PBE O 08Apr2002                   :
 energy of atom  2       EATOM= -432.3788
 kinetic energy error for atom=    0.1156 (will be added to EATOM!!)


 POSCAR: Ti4 O8
  positions in cartesian coordinates
  No initial velocities read in
 exchange correlation table for  LEXCH =        8
   RHO(1)=    0.500       N(1)  =     2000
   RHO(2)=  100.500       N(2)  =     4000



--------------------------------------------------------------------------------------------------------


 ion  position               nearest neighbor table
   1  0.167  0.167  0.500-  56 1.94  55 1.94  40 1.94  37 1.94 100 2.00  46 2.00  31 3.06  28 3.06
                            11 3.06  10 3.06
   2  0.167  0.500  0.500-  56 1.94  41 1.94  38 1.94  57 1.94 101 2.00  47 2.00  11 3.06  32 3.06
                            29 3.06  12 3.06
   3  0.167  0.833  0.500-  57 1.94  42 1.94  39 1.94  55 1.94 102 2.00  48 2.00  12 3.06  33 3.06
                            30 3.06  10 3.06
   4  0.500  0.167  0.500-  40 1.94  59 1.94  58 1.94  43 1.94 103 2.00  49 2.00  31 3.06  14 3.06
                            13 3.06  34 3.06
   5  0.509  0.500  0.500-  44 1.84  59 1.94  60 1.94 104 2.00  50 2.00  41 2.04  35 3.00  14 3.06
                            15 3.06  32 3.12
   6  0.500  0.833  0.500-  60 1.94  42 1.94  58 1.94  45 1.94 105 2.00  51 2.00  15 3.06  33 3.06
                            13 3.06  36 3.06
   7  0.833  0.167  0.500-  43 1.94  62 1.94  61 1.94  37 1.94 106 2.00  52 2.00  34 3.06  17 3.06
                            16 3.06  28 3.06
   8  0.833  0.500  0.500-  44 1.94  62 1.94  63 1.94  38 1.94 107 2.00  53 2.00  35 3.06  17 3.06
                            29 3.06  18 3.06
   9  0.833  0.833  0.500-  63 1.94  45 1.94  61 1.94  39 1.94 108 2.00  54 2.00  36 3.06  18 3.06
                            30 3.06  16 3.06
  10  0.167  0.000  0.750-  67 1.94  64 1.94  46 1.94  48 1.94  73 2.00  55 2.00  22 3.06  19 3.06
                             1 3.06   3 3.06
  11  0.167  0.333  0.750-  47 1.94  46 1.94  68 1.94  65 1.94  74 2.00  56 2.00   2 3.06  23 3.06
                            20 3.06   1 3.06
  12  0.167  0.667  0.750-  48 1.94  69 1.94  66 1.94  47 1.94  75 2.00  57 2.00   3 3.06  24 3.06
                            21 3.06   2 3.06
  13  0.500  0.000  0.750-  67 1.94  49 1.94  51 1.94  70 1.94  76 2.00  58 2.00  22 3.06   4 3.06
                            25 3.06   6 3.06
  14  0.500  0.333  0.750-  50 1.94  68 1.94  49 1.94  71 1.94  77 2.00  59 2.00  23 3.06   4 3.06
                            26 3.06   5 3.06
  15  0.500  0.667  0.750-  51 1.94  69 1.94  50 1.94  72 1.94  78 2.00  60 2.00   6 3.06  24 3.06
                            27 3.06   5 3.06
  16  0.833  0.000  0.750-  70 1.94  52 1.94  64 1.94  54 1.94  79 2.00  61 2.00  25 3.06   7 3.06
                            19 3.06   9 3.06
  17  0.833  0.333  0.750-  71 1.94  53 1.94  52 1.94  65 1.94  80 2.00  62 2.00  26 3.06   8 3.06
                             7 3.06  20 3.06
  18  0.833  0.667  0.750-  54 1.94  72 1.94  66 1.94  53 1.94  81 2.00  63 2.00  27 3.06   9 3.06
                            21 3.06   8 3.06
  19  0.000  0.000  0.000-  73 1.94  91 1.94  79 1.94  93 1.94  82 2.00  64 2.00  10 3.06  28 3.06
                            16 3.06  30 3.06
  20  0.000  0.333  0.000-  92 1.94  74 1.94  91 1.94  80 1.94  83 2.00  65 2.00  29 3.06  11 3.06
                            28 3.06  17 3.06
  21  0.000  0.667  0.000-  93 1.94  75 1.94  81 1.94  92 1.94  84 2.00  66 2.00  30 3.06  12 3.06
                            18 3.06  29 3.06
  22  0.333  0.000  0.000-  76 1.94  73 1.94  94 1.94  96 1.94  85 2.00  67 2.00  13 3.06  10 3.06
                            31 3.06  33 3.06
  23  0.333  0.333  0.000-  77 1.94  95 1.94  74 1.94  94 1.94  86 2.00  68 2.00  14 3.06  32 3.06
                            11 3.06  31 3.06
  24  0.333  0.667  0.000-  96 1.94  78 1.94  75 1.94  95 1.94  87 2.00  69 2.00  33 3.06  15 3.06
                            12 3.06  32 3.06
  25  0.667  0.000  0.000-  79 1.94  97 1.94  76 1.94  99 1.94  88 2.00  70 2.00  16 3.06  34 3.06
                            13 3.06  36 3.06
  26  0.667  0.333  0.000-  80 1.94  98 1.94  97 1.94  77 1.94  89 2.00  71 2.00  17 3.06  35 3.06
                            34 3.06  14 3.06
  27  0.667  0.667  0.000-  81 1.94  99 1.94  78 1.94  98 1.94  90 2.00  72 2.00  18 3.06  36 3.06
                            15 3.06  35 3.06
  28  0.000  0.167  0.250-  83 1.94  82 1.94 100 1.94 106 1.94  37 2.00  91 2.00   1 3.06  20 3.06
                            19 3.06   7 3.06
  29  0.000  0.500  0.250-  83 1.94 101 1.94  84 1.94 107 1.94  38 2.00  92 2.00  20 3.06   2 3.06
                             8 3.06  21 3.06
  30  0.000  0.833  0.250-  84 1.94 102 1.94  82 1.94 108 1.94  39 2.00  93 2.00  21 3.06   3 3.06
                             9 3.06  19 3.06
  31  0.333  0.167  0.250- 103 1.94  86 1.94  85 1.94 100 1.94  40 2.00  94 2.00   4 3.06   1 3.06
                            23 3.06  22 3.06
  32  0.333  0.500  0.250-  86 1.94 104 1.94 101 1.94  87 1.94  41 2.00  95 2.00  23 3.06   2 3.06
                            24 3.06   5 3.12
  33  0.333  0.833  0.250-  87 1.94 105 1.94 102 1.94  85 1.94  42 2.00  96 2.00  24 3.06   6 3.06
                             3 3.06  22 3.06
  34  0.667  0.167  0.250- 106 1.94  89 1.94  88 1.94 103 1.94  43 2.00  97 2.00   7 3.06  26 3.06
                            25 3.06   4 3.06
  35  0.667  0.500  0.250- 107 1.94  89 1.94  90 1.94 104 1.94  44 2.00  98 2.00   5 3.00   8 3.06
                            26 3.06  27 3.06
  36  0.667  0.833  0.250-  90 1.94 108 1.94  88 1.94 105 1.94  45 2.00  99 2.00   9 3.06  27 3.06
                            25 3.06   6 3.06
  37  0.000  0.167  0.458-   1 1.94   7 1.94  28 2.00
  38  0.000  0.500  0.458-   2 1.94   8 1.94  29 2.00
  39  0.000  0.833  0.458-   3 1.94   9 1.94  30 2.00
  40  0.333  0.167  0.458-   4 1.94   1 1.94  31 2.00
  41  0.333  0.500  0.458-   2 1.94  32 2.00   5 2.04
  42  0.333  0.833  0.458-   6 1.94   3 1.94  33 2.00
  43  0.667  0.167  0.458-   7 1.94   4 1.94  34 2.00
  44  0.667  0.500  0.458-   5 1.84   8 1.94  35 2.00
  45  0.667  0.833  0.458-   9 1.94   6 1.94  36 2.00
  46  0.167  0.167  0.708-  11 1.94  10 1.94   1 2.00
  47  0.167  0.500  0.708-  11 1.94  12 1.94   2 2.00
  48  0.167  0.833  0.708-  12 1.94  10 1.94   3 2.00
  49  0.500  0.167  0.708-  14 1.94  13 1.94   4 2.00
  50  0.500  0.500  0.708-  14 1.94  15 1.94   5 2.00
  51  0.500  0.833  0.708-  15 1.94  13 1.94   6 2.00
  52  0.833  0.167  0.708-  17 1.94  16 1.94   7 2.00
  53  0.833  0.500  0.708-  17 1.94  18 1.94   8 2.00
  54  0.833  0.833  0.708-  18 1.94  16 1.94   9 2.00
  55  0.167  0.000  0.542-   1 1.94   3 1.94  10 2.00
  56  0.167  0.333  0.542-   2 1.94   1 1.94  11 2.00
  57  0.167  0.667  0.542-   3 1.94   2 1.94  12 2.00
  58  0.500  0.000  0.542-   4 1.94   6 1.94  13 2.00
  59  0.500  0.333  0.542-   4 1.94   5 1.94  14 2.00
  60  0.500  0.667  0.542-   6 1.94   5 1.94  15 2.00
  61  0.833  0.000  0.542-   7 1.94   9 1.94  16 2.00
  62  0.833  0.333  0.542-   8 1.94   7 1.94  17 2.00
  63  0.833  0.667  0.542-   9 1.94   8 1.94  18 2.00
  64  0.000  0.000  0.792-  10 1.94  16 1.94  19 2.00
  65  0.000  0.333  0.792-  11 1.94  17 1.94  20 2.00
  66  0.000  0.667  0.792-  12 1.94  18 1.94  21 2.00
  67  0.333  0.000  0.792-  13 1.94  10 1.94  22 2.00
  68  0.333  0.333  0.792-  14 1.94  11 1.94  23 2.00
  69  0.333  0.667  0.792-  15 1.94  12 1.94  24 2.00
  70  0.667  0.000  0.792-  16 1.94  13 1.94  25 2.00
  71  0.667  0.333  0.792-  17 1.94  14 1.94  26 2.00
  72  0.667  0.667  0.792-  18 1.94  15 1.94  27 2.00
  73  0.167  0.000  0.958-  22 1.94  19 1.94  10 2.00
  74  0.167  0.333  0.958-  23 1.94  20 1.94  11 2.00
  75  0.167  0.667  0.958-  24 1.94  21 1.94  12 2.00
  76  0.500  0.000  0.958-  22 1.94  25 1.94  13 2.00
  77  0.500  0.333  0.958-  23 1.94  26 1.94  14 2.00
  78  0.500  0.667  0.958-  24 1.94  27 1.94  15 2.00
  79  0.833  0.000  0.958-  25 1.94  19 1.94  16 2.00
  80  0.833  0.333  0.958-  26 1.94  20 1.94  17 2.00
  81  0.833  0.667  0.958-  27 1.94  21 1.94  18 2.00
  82  0.000  0.000  0.208-  28 1.94  30 1.94  19 2.00
  83  0.000  0.333  0.208-  29 1.94  28 1.94  20 2.00
  84  0.000  0.667  0.208-  30 1.94  29 1.94  21 2.00
  85  0.333  0.000  0.208-  31 1.94  33 1.94  22 2.00
  86  0.333  0.333  0.208-  32 1.94  31 1.94  23 2.00
  87  0.333  0.667  0.208-  33 1.94  32 1.94  24 2.00
  88  0.667  0.000  0.208-  34 1.94  36 1.94  25 2.00
  89  0.667  0.333  0.208-  35 1.94  34 1.94  26 2.00
  90  0.667  0.667  0.208-  36 1.94  35 1.94  27 2.00
  91  0.000  0.167  0.042-  20 1.94  19 1.94  28 2.00
  92  0.000  0.500  0.042-  20 1.94  21 1.94  29 2.00
  93  0.000  0.833  0.042-  21 1.94  19 1.94  30 2.00
  94  0.333  0.167  0.042-  23 1.94  22 1.94  31 2.00
  95  0.333  0.500  0.042-  23 1.94  24 1.94  32 2.00
  96  0.333  0.833  0.042-  24 1.94  22 1.94  33 2.00
  97  0.667  0.167  0.042-  26 1.94  25 1.94  34 2.00
  98  0.667  0.500  0.042-  26 1.94  27 1.94  35 2.00
  99  0.667  0.833  0.042-  27 1.94  25 1.94  36 2.00
 100  0.167  0.167  0.292-  31 1.94  28 1.94   1 2.00
 101  0.167  0.500  0.292-  32 1.94  29 1.94   2 2.00
 102  0.167  0.833  0.292-  33 1.94  30 1.94   3 2.00
 103  0.500  0.167  0.292-  31 1.94  34 1.94   4 2.00
 104  0.500  0.500  0.292-  32 1.94  35 1.94   5 2.00
 105  0.500  0.833  0.292-  33 1.94  36 1.94   6 2.00
 106  0.833  0.167  0.292-  34 1.94  28 1.94   7 2.00
 107  0.833  0.500  0.292-  35 1.94  29 1.94   8 2.00
 108  0.833  0.833  0.292-  36 1.94  30 1.94   9 2.00


IMPORTANT INFORMATION: All symmetrisations will be switched off!
NOSYMM: (Re-)initialisation of all symmetry stuff for point group C_1.


----------------------------------------------------------------------------------------

                                     Primitive cell

  volume of cell :    1243.1447

  direct lattice vectors                    reciprocal lattice vectors
    11.376843452  0.000000000  0.000000000     0.087897843  0.000000000  0.000000000
     0.000000000 11.376843452  0.000000000     0.000000000  0.087897843  0.000000000
     0.000000000  0.000000000  9.604574204     0.000000000  0.000000000  0.104117057

  length of vectors
    11.376843452 11.376843452  9.604574204     0.087897843  0.087897843  0.104117057

  position of ions in fractional coordinates (direct lattice)
     0.166666672  0.166666672  0.500000000
     0.166666672  0.500000000  0.500000000
     0.166666672  0.833333313  0.500000000
     0.500000000  0.166666672  0.500000000
     0.508789784  0.500000000  0.500000000
     0.500000000  0.833333313  0.500000000
     0.833333313  0.166666672  0.500000000
     0.833333313  0.500000000  0.500000000
     0.833333313  0.833333313  0.500000000
     0.166666672  0.000000000  0.750000000
     0.166666672  0.333333343  0.750000000
     0.166666672  0.666666687  0.750000000
     0.500000000  0.000000000  0.750000000
     0.500000000  0.333333343  0.750000000
     0.500000000  0.666666687  0.750000000
     0.833333313  0.000000000  0.750000000
     0.833333313  0.333333343  0.750000000
     0.833333313  0.666666687  0.750000000
     0.000000000  0.000000000  0.000000000
     0.000000000  0.333333343  0.000000000
     0.000000000  0.666666687  0.000000000
     0.333333343  0.000000000  0.000000000
     0.333333343  0.333333343  0.000000000
     0.333333343  0.666666687  0.000000000
     0.666666687  0.000000000  0.000000000
     0.666666687  0.333333343  0.000000000
     0.666666687  0.666666687  0.000000000
     0.000000000  0.166666672  0.250000000
     0.000000000  0.500000000  0.250000000
     0.000000000  0.833333313  0.250000000
     0.333333343  0.166666672  0.250000000
     0.333333343  0.500000000  0.250000000
     0.333333343  0.833333313  0.250000000
     0.666666687  0.166666672  0.250000000
     0.666666687  0.500000000  0.250000000
     0.666666687  0.833333313  0.250000000
     0.000000000  0.166666672  0.457898587
     0.000000000  0.500000000  0.457898587
     0.000000000  0.833333313  0.457898587
     0.333333343  0.166666672  0.457898587
     0.333333343  0.500000000  0.457898587
     0.333333343  0.833333313  0.457898587
     0.666666687  0.166666672  0.457898587
     0.666666687  0.500000000  0.457898587
     0.666666687  0.833333313  0.457898587
     0.166666672  0.166666672  0.707898617
     0.166666672  0.500000000  0.707898617
     0.166666672  0.833333313  0.707898617
     0.500000000  0.166666672  0.707898617
     0.500000000  0.500000000  0.707898617
     0.500000000  0.833333313  0.707898617
     0.833333313  0.166666672  0.707898617
     0.833333313  0.500000000  0.707898617
     0.833333313  0.833333313  0.707898617
     0.166666672  0.000000000  0.542101383
     0.166666672  0.333333343  0.542101383
     0.166666672  0.666666687  0.542101383
     0.500000000  0.000000000  0.542101383
     0.500000000  0.333333343  0.542101383
     0.500000000  0.666666687  0.542101383
     0.833333313  0.000000000  0.542101383
     0.833333313  0.333333343  0.542101383
     0.833333313  0.666666687  0.542101383
     0.000000000  0.000000000  0.792101383
     0.000000000  0.333333343  0.792101383
     0.000000000  0.666666687  0.792101383
     0.333333343  0.000000000  0.792101383
     0.333333343  0.333333343  0.792101383
     0.333333343  0.666666687  0.792101383
     0.666666687  0.000000000  0.792101383
     0.666666687  0.333333343  0.792101383
     0.666666687  0.666666687  0.792101383
     0.166666672  0.000000000  0.957898617
     0.166666672  0.333333343  0.957898617
     0.166666672  0.666666687  0.957898617
     0.500000000  0.000000000  0.957898617
     0.500000000  0.333333343  0.957898617
     0.500000000  0.666666687  0.957898617
     0.833333313  0.000000000  0.957898617
     0.833333313  0.333333343  0.957898617
     0.833333313  0.666666687  0.957898617
     0.000000000  0.000000000  0.207898602
     0.000000000  0.333333343  0.207898602
     0.000000000  0.666666687  0.207898602
     0.333333343  0.000000000  0.207898602
     0.333333343  0.333333343  0.207898602
     0.333333343  0.666666687  0.207898602
     0.666666687  0.000000000  0.207898602
     0.666666687  0.333333343  0.207898602
     0.666666687  0.666666687  0.207898602
     0.000000000  0.166666672  0.042101406
     0.000000000  0.500000000  0.042101406
     0.000000000  0.833333313  0.042101406
     0.333333343  0.166666672  0.042101406
     0.333333343  0.500000000  0.042101406
     0.333333343  0.833333313  0.042101406
     0.666666687  0.166666672  0.042101406
     0.666666687  0.500000000  0.042101406
     0.666666687  0.833333313  0.042101406
     0.166666672  0.166666672  0.292101413
     0.166666672  0.500000000  0.292101413
     0.166666672  0.833333313  0.292101413
     0.500000000  0.166666672  0.292101413
     0.500000000  0.500000000  0.292101413
     0.500000000  0.833333313  0.292101413
     0.833333313  0.166666672  0.292101413
     0.833333313  0.500000000  0.292101413
     0.833333313  0.833333313  0.292101413

  ion indices of the primitive-cell ions
   primitive index   ion index
                 1           1
                 2           2
                 3           3
                 4           4
                 5           5
                 6           6
                 7           7
                 8           8
                 9           9
                10          10
                11          11
                12          12
                13          13
                14          14
                15          15
                16          16
                17          17
                18          18
                19          19
                20          20
                21          21
                22          22
                23          23
                24          24
                25          25
                26          26
                27          27
                28          28
                29          29
                30          30
                31          31
                32          32
                33          33
                34          34
                35          35
                36          36
                37          37
                38          38
                39          39
                40          40
                41          41
                42          42
                43          43
                44          44
                45          45
                46          46
                47          47
                48          48
                49          49
                50          50
                51          51
                52          52
                53          53
                54          54
                55          55
                56          56
                57          57
                58          58
                59          59
                60          60
                61          61
                62          62
                63          63
                64          64
                65          65
                66          66
                67          67
                68          68
                69          69
                70          70
                71          71
                72          72
                73          73
                74          74
                75          75
                76          76
                77          77
                78          78
                79          79
                80          80
                81          81
                82          82
                83          83
                84          84
                85          85
                86          86
                87          87
                88          88
                89          89
                90          90
                91          91
                92          92
                93          93
                94          94
                95          95
                96          96
                97          97
                98          98
                99          99
               100         100
               101         101
               102         102
               103         103
               104         104
               105         105
               106         106
               107         107
               108         108

----------------------------------------------------------------------------------------



 KPOINTS: K-Points

Automatic generation of k-mesh.
 Grid dimensions read from file:
 generate k-points for:    2    2    2

 Generating k-lattice:

  Cartesian coordinates                     Fractional coordinates (reciprocal lattice)
     0.043948922  0.000000000  0.000000000     0.500000000  0.000000000  0.000000000
     0.000000000  0.043948922  0.000000000     0.000000000  0.500000000  0.000000000
     0.000000000  0.000000000  0.052058529     0.000000000  0.000000000  0.500000000

  Length of vectors
     0.043948922  0.043948922  0.052058529

  Shift w.r.t. Gamma in fractional coordinates (k-lattice)
     0.500000000  0.500000000  0.500000000


 Subroutine IBZKPT returns following result:
 ===========================================

 Found      4 irreducible k-points:

 Following reciprocal coordinates:
            Coordinates               Weight
  0.250000  0.250000  0.250000      2.000000
 -0.250000  0.250000  0.250000      2.000000
 -0.250000 -0.250000  0.250000      2.000000
  0.250000 -0.250000  0.250000      2.000000

 Following cartesian coordinates:
            Coordinates               Weight
  0.021974  0.021974  0.026029      2.000000
 -0.021974  0.021974  0.026029      2.000000
 -0.021974 -0.021974  0.026029      2.000000
  0.021974 -0.021974  0.026029      2.000000


 Subroutine IBZKPT_HF returns following result:
 ==============================================

 Found      8 k-points in 1st BZ
 the following      8 k-points will be used (e.g. in the exchange kernel)
 Following reciprocal coordinates:   # in IRBZ
  0.250000  0.250000  0.250000    0.12500000   1 t-inv F
 -0.250000  0.250000  0.250000    0.12500000   2 t-inv F
 -0.250000 -0.250000  0.250000    0.12500000   3 t-inv F
  0.250000 -0.250000  0.250000    0.12500000   4 t-inv F
 -0.250000 -0.250000 -0.250000    0.12500000   1 t-inv T
  0.250000 -0.250000 -0.250000    0.12500000   2 t-inv T
  0.250000  0.250000 -0.250000    0.12500000   3 t-inv T
 -0.250000  0.250000 -0.250000    0.12500000   4 t-inv T


--------------------------------------------------------------------------------------------------------




 Dimension of arrays:
   k-points           NKPTS =      4   k-points in BZ     NKDIM =      4   number of bands    NBANDS=    476
   number of dos      NEDOS =    301   number of ions     NIONS =    108
   non local maximal  LDIM  =      6   non local SUM 2l+1 LMDIM =     18
   total plane-waves  NPLWV = 150528
   max r-space proj   IRMAX =   1791   max aug-charges    IRDMAX=   4900
   dimension x,y,z NGX =    56 NGY =   56 NGZ =   48
   dimension x,y,z NGXF=   112 NGYF=  112 NGZF=   96
   support grid    NGXF=   112 NGYF=  112 NGZF=   96
   ions per type =              36  72
   NGX,Y,Z   is equivalent  to a cutoff of   8.18,  8.18,  8.31 a.u.
   NGXF,Y,Z  is equivalent  to a cutoff of  16.37, 16.37, 16.62 a.u.

 SYSTEM =  unknown system
 POSCAR =  Ti4 O8

 Startparameter for this run:
   NWRITE =      2    write-flag & timer
   PREC   = normal    normal or accurate (medium, high low for compatibility)
   ISTART =      0    job   : 0-new  1-cont  2-samecut
   ICHARG =      2    charge: 1-file 2-atom 10-const
   ISPIN  =      1    spin polarized calculation?
   LNONCOLLINEAR =      F non collinear calculations
   LSORBIT =      F    spin-orbit coupling
   INIWAV =      1    electr: 0-lowe 1-rand  2-diag
   LASPH  =      F    aspherical Exc in radial PAW
 Electronic Relaxation 1
   ENCUT  =  400.0 eV  29.40 Ry    5.42 a.u.  18.55 18.55 15.66*2*pi/ulx,y,z
   ENINI  =  400.0     initial cutoff
   ENAUG  =  605.4 eV  augmentation charge cutoff
   NELM   =     80;   NELMIN=  4; NELMDL= -5     # of ELM steps
   EDIFF  = 0.1E-06   stopping-criterion for ELM
   LREAL  =      T    real-space projection
   NLSPLINE    = F    spline interpolate recip. space projectors
   LCOMPAT=      F    compatible to vasp.4.4
   GGA_COMPAT  = T    GGA compatible to vasp.4.4-vasp.4.6
   LMAXPAW     = -100 max onsite density
   LMAXMIX     =    2 max onsite mixed and CHGCAR
   VOSKOWN=      0    Vosko Wilk Nusair interpolation
   ROPT   =   -0.00050  -0.00050
 Ionic relaxation
   EDIFFG = 0.1E-05   stopping-criterion for IOM
   NSW    =      0    number of steps for IOM
   NBLOCK =      1;   KBLOCK =      1    inner block; outer block
   IBRION =     -1    ionic relax: 0-MD 1-quasi-New 2-CG
   NFREE  =      0    steps in history (QN), initial steepest desc. (CG)
   ISIF   =      2    stress and relaxation
   IWAVPR =     10    prediction:  0-non 1-charg 2-wave 3-comb
   ISYM   =      0    0-nonsym 1-usesym 2-fastsym
   LCORR  =      T    Harris-Foulkes like correction to forces

   POTIM  = 0.5000    time-step for ionic-motion
   TEIN   =    0.0    initial temperature
   TEBEG  =    0.0;   TEEND  =   0.0 temperature during run
   SMASS  =  -3.00    Nose mass-parameter (am)
   estimated Nose-frequenzy (Omega)   =  0.10E-29 period in steps = 0.13E+47 mass=  -0.296E-26a.u.
   SCALEE = 1.0000    scale energy and forces
   NPACO  =    256;   APACO  = 10.0  distance and # of slots for P.C.
   PSTRESS=    0.0 pullay stress

  Mass of Ions in am
   POMASS =  47.88 16.00
  Ionic Valenz
   ZVAL   =  10.00  6.00
  Atomic Wigner-Seitz radii
   RWIGS  =  -1.00 -1.00
  virtual crystal weights
   VCA    =   1.00  1.00
   NELECT =     792.0000    total number of electrons
   NUPDOWN=      -1.0000    fix difference up-down

 DOS related values:
   EMIN   =  10.00;   EMAX   =-10.00  energy-range for DOS
   EFERMI =   0.00
   ISMEAR =     0;   SIGMA  =   0.10  broadening in eV -4-tet -1-fermi 0-gaus

 Electronic relaxation 2 (details)
   IALGO  =     38    algorithm
   LDIAG  =      T    sub-space diagonalisation (order eigenvalues)
   LSUBROT=      F    optimize rotation matrix (better conditioning)
   TURBO    =      0    0=normal 1=particle mesh
   IRESTART =      0    0=no restart 2=restart with 2 vectors
   NREBOOT  =      0    no. of reboots
   NMIN     =      0    reboot dimension
   EREF     =   0.00    reference energy to select bands
   IMIX   =      4    mixing-type and parameters
     AMIX     =   0.40;   BMIX     =  1.00
     AMIX_MAG =   1.60;   BMIX_MAG =  1.00
     AMIN     =   0.10
     WC   =   100.;   INIMIX=   1;  MIXPRE=   1;  MAXMIX= -45

 Intra band minimization:
   WEIMIN = 0.0000     energy-eigenvalue tresh-hold
   EBREAK =  0.53E-10  absolut break condition
   DEPER  =   0.30     relativ break condition

   TIME   =   0.40     timestep for ELM

  volume/ion in A,a.u.               =      11.51        77.68
  Fermi-wavevector in a.u.,A,eV,Ry     =   1.408670  2.662001 26.998745  1.984352
  Thomas-Fermi vector in A             =   2.530804

 Write flags
   LWAVE        =      F    write WAVECAR
   LDOWNSAMPLE  =      F    k-point downsampling of WAVECAR
   LCHARG       =      F    write CHGCAR
   LVTOT        =      F    write LOCPOT, total local potential
   LVHAR        =      F    write LOCPOT, Hartree potential only
   LELF         =      F    write electronic localiz. function (ELF)
   LORBIT       =      0    0 simple, 1 ext, 2 COOP (PROOUT), +10 PAW based schemes


 Dipole corrections
   LMONO  =      F    monopole corrections only (constant potential shift)
   LDIPOL =      F    correct potential (dipole corrections)
   IDIPOL =      0    1-x, 2-y, 3-z, 4-all directions
   EPSILON=  1.0000000 bulk dielectric constant

 Exchange correlation treatment:
   GGA     =    --    GGA type
   LEXCH   =     8    internal setting for exchange type
   LIBXC   =     F    Libxc
   VOSKOWN =     0    Vosko Wilk Nusair interpolation
   LHFCALC =     F    Hartree Fock is set to
   LHFONE  =     F    Hartree Fock one center treatment
   AEXX    =    0.0000 exact exchange contribution

 Linear response parameters
   LEPSILON=     T    determine dielectric tensor
   LRPA    =     F    only Hartree local field effects (RPA)
   LNABLA  =     F    use nabla operator in PAW spheres
   LVEL    =     F    velocity operator in full k-point grid
   CSHIFT  =0.1000    complex shift for real part using Kramers Kronig
   OMEGAMAX=  -1.0    maximum frequency
   DEG_THRESHOLD= 0.2000000E-02 threshold for treating states as degnerate
   RTIME   =   -0.100 relaxation time in fs
  (WPLASMAI=    0.000 imaginary part of plasma frequency in eV, 0.658/RTIME)
   DFIELD  = 0.0000000 0.0000000 0.0000000 field for delta impulse in time

  Optional k-point grid parameters
   LKPOINTS_OPT  =     F    use optional k-point grid
   KPOINTS_OPT_MODE=     1    mode for optional k-point grid

 Orbital magnetization related:
   ORBITALMAG=     F  switch on orbital magnetization
   LCHIMAG   =     F  perturbation theory with respect to B field
   DQ        =  0.001000  dq finite difference perturbation B field
   LLRAUG    =     F  two centre corrections for induced B field

 PEAD related settings:
   LPEAD      =     T    switch on PEAD
   IPEAD      =     4    finite difference order for dpsi/dk
   LCALCPOL   =     F    calculate macroscopic polarization
   LCALCEPS   =     F    calculate dielectric tensor
   EFIELD_PEAD=    0.0000    0.0000    0.0000
   SKIP_EDOTP =     F
   LRPA       =     F
   SKIP_SCF   =     F


--------------------------------------------------------------------------------------------------------


 Static calculation
 charge density and potential will be updated during run
 non-spin polarized calculation
 Variant of blocked Davidson
 Davidson routine will perform the subspace rotation
 perform sub-space diagonalisation
    after iterative eigenvector-optimisation
 modified Broyden-mixing scheme, WC =      100.0
 initial mixing is a Kerker type mixing with AMIX =  0.4000 and BMIX =      1.0000
 Hartree-type preconditioning will be used
 using additional bands           80
 real space projection scheme for non local part
 use partial core corrections
 calculate Harris-corrections to forces
   (improved forces if not selfconsistent)
 use gradient corrections
 use of overlap-Matrix (Vanderbilt PP)
 Gauss-broadening in eV      SIGMA  =   0.10


--------------------------------------------------------------------------------------------------------


  energy-cutoff  :      400.00
  volume of cell :     1243.14
      direct lattice vectors                 reciprocal lattice vectors
    11.376843452  0.000000000  0.000000000     0.087897843  0.000000000  0.000000000
     0.000000000 11.376843452  0.000000000     0.000000000  0.087897843  0.000000000
     0.000000000  0.000000000  9.604574204     0.000000000  0.000000000  0.104117057

  length of vectors
    11.376843452 11.376843452  9.604574204     0.087897843  0.087897843  0.104117057



 k-points in units of 2pi/SCALE and weight: K-Points
   0.02197446  0.02197446  0.02602926       0.250
  -0.02197446  0.02197446  0.02602926       0.250
  -0.02197446 -0.02197446  0.02602926       0.250
   0.02197446 -0.02197446  0.02602926       0.250

 k-points in reciprocal lattice and weights: K-Points
   0.25000000  0.25000000  0.25000000       0.250
  -0.25000000  0.25000000  0.25000000       0.250
  -0.25000000 -0.25000000  0.25000000       0.250
   0.25000000 -0.25000000  0.25000000       0.250

 position of ions in fractional coordinates (direct lattice)
   0.16666667  0.16666667  0.50000000
   0.16666667  0.50000000  0.50000000
   0.16666667  0.83333331  0.50000000
   0.50000000  0.16666667  0.50000000
   0.50878978  0.50000000  0.50000000
   0.50000000  0.83333331  0.50000000
   0.83333331  0.16666667  0.50000000
   0.83333331  0.50000000  0.50000000
   0.83333331  0.83333331  0.50000000
   0.16666667  0.00000000  0.75000000
   0.16666667  0.33333334  0.75000000
   0.16666667  0.66666669  0.75000000
   0.50000000  0.00000000  0.75000000
   0.50000000  0.33333334  0.75000000
   0.50000000  0.66666669  0.75000000
   0.83333331  0.00000000  0.75000000
   0.83333331  0.33333334  0.75000000
   0.83333331  0.66666669  0.75000000
   0.00000000  0.00000000  0.00000000
   0.00000000  0.33333334  0.00000000
   0.00000000  0.66666669  0.00000000
   0.33333334  0.00000000  0.00000000
   0.33333334  0.33333334  0.00000000
   0.33333334  0.66666669  0.00000000
   0.66666669  0.00000000  0.00000000
   0.66666669  0.33333334  0.00000000
   0.66666669  0.66666669  0.00000000
   0.00000000  0.16666667  0.25000000
   0.00000000  0.50000000  0.25000000
   0.00000000  0.83333331  0.25000000
   0.33333334  0.16666667  0.25000000
   0.33333334  0.50000000  0.25000000
   0.33333334  0.83333331  0.25000000
   0.66666669  0.16666667  0.25000000
   0.66666669  0.50000000  0.25000000
   0.66666669  0.83333331  0.25000000
   0.00000000  0.16666667  0.45789859
   0.00000000  0.50000000  0.45789859
   0.00000000  0.83333331  0.45789859
   0.33333334  0.16666667  0.45789859
   0.33333334  0.50000000  0.45789859
   0.33333334  0.83333331  0.45789859
   0.66666669  0.16666667  0.45789859
   0.66666669  0.50000000  0.45789859
   0.66666669  0.83333331  0.45789859
   0.16666667  0.16666667  0.70789862
   0.16666667  0.50000000  0.70789862
   0.16666667  0.83333331  0.70789862
   0.50000000  0.16666667  0.70789862
   0.50000000  0.50000000  0.70789862
   0.50000000  0.83333331  0.70789862
   0.83333331  0.16666667  0.70789862
   0.83333331  0.50000000  0.70789862
   0.83333331  0.83333331  0.70789862
   0.16666667  0.00000000  0.54210138
   0.16666667  0.33333334  0.54210138
   0.16666667  0.66666669  0.54210138
   0.50000000  0.00000000  0.54210138
   0.50000000  0.33333334  0.54210138
   0.50000000  0.66666669  0.54210138
   0.83333331  0.00000000  0.54210138
   0.83333331  0.33333334  0.54210138
   0.83333331  0.66666669  0.54210138
   0.00000000  0.00000000  0.79210138
   0.00000000  0.33333334  0.79210138
   0.00000000  0.66666669  0.79210138
   0.33333334  0.00000000  0.79210138
   0.33333334  0.33333334  0.79210138
   0.33333334  0.66666669  0.79210138
   0.66666669  0.00000000  0.79210138
   0.66666669  0.33333334  0.79210138
   0.66666669  0.66666669  0.79210138
   0.16666667  0.00000000  0.95789862
   0.16666667  0.33333334  0.95789862
   0.16666667  0.66666669  0.95789862
   0.50000000  0.00000000  0.95789862
   0.50000000  0.33333334  0.95789862
   0.50000000  0.66666669  0.95789862
   0.83333331  0.00000000  0.95789862
   0.83333331  0.33333334  0.95789862
   0.83333331  0.66666669  0.95789862
   0.00000000  0.00000000  0.20789860
   0.00000000  0.33333334  0.20789860
   0.00000000  0.66666669  0.20789860
   0.33333334  0.00000000  0.20789860
   0.33333334  0.33333334  0.20789860
   0.33333334  0.66666669  0.20789860
   0.66666669  0.00000000  0.20789860
   0.66666669  0.33333334  0.20789860
   0.66666669  0.66666669  0.20789860
   0.00000000  0.16666667  0.04210141
   0.00000000  0.50000000  0.04210141
   0.00000000  0.83333331  0.04210141
   0.33333334  0.16666667  0.04210141
   0.33333334  0.50000000  0.04210141
   0.33333334  0.83333331  0.04210141
   0.66666669  0.16666667  0.04210141
   0.66666669  0.50000000  0.04210141
   0.66666669  0.83333331  0.04210141
   0.16666667  0.16666667  0.29210141
   0.16666667  0.50000000  0.29210141
   0.16666667  0.83333331  0.29210141
   0.50000000  0.16666667  0.29210141
   0.50000000  0.50000000  0.29210141
   0.50000000  0.83333331  0.29210141
   0.83333331  0.16666667  0.29210141
   0.83333331  0.50000000  0.29210141
   0.83333331  0.83333331  0.29210141

 position of ions in cartesian coordinates  (Angst):
   1.89614063  1.89614063  4.80228710
   1.89614063  5.68842173  4.80228710
   1.89614063  9.48070265  4.80228710
   5.68842173  1.89614063  4.80228710
   5.78842173  5.68842173  4.80228710
   5.68842173  9.48070265  4.80228710
   9.48070265  1.89614063  4.80228710
   9.48070265  5.68842173  4.80228710
   9.48070265  9.48070265  4.80228710
   1.89614063  0.00000000  7.20343065
   1.89614063  3.79228126  7.20343065
   1.89614063  7.58456253  7.20343065
   5.68842173  0.00000000  7.20343065
   5.68842173  3.79228126  7.20343065
   5.68842173  7.58456253  7.20343065
   9.48070265  0.00000000  7.20343065
   9.48070265  3.79228126  7.20343065
   9.48070265  7.58456253  7.20343065
   0.00000000  0.00000000  0.00000000
   0.00000000  3.79228126  0.00000000
   0.00000000  7.58456253  0.00000000
   3.79228126  0.00000000  0.00000000
   3.79228126  3.79228126  0.00000000
   3.79228126  7.58456253  0.00000000
   7.58456253  0.00000000  0.00000000
   7.58456253  3.79228126  0.00000000
   7.58456253  7.58456253  0.00000000
   0.00000000  1.89614063  2.40114355
   0.00000000  5.68842173  2.40114355
   0.00000000  9.48070265  2.40114355
   3.79228126  1.89614063  2.40114355
   3.79228126  5.68842173  2.40114355
   3.79228126  9.48070265  2.40114355
   7.58456253  1.89614063  2.40114355
   7.58456253  5.68842173  2.40114355
   7.58456253  9.48070265  2.40114355
   0.00000000  1.89614063  4.39792096
   0.00000000  5.68842173  4.39792096
   0.00000000  9.48070265  4.39792096
   3.79228126  1.89614063  4.39792096
   3.79228126  5.68842173  4.39792096
   3.79228126  9.48070265  4.39792096
   7.58456253  1.89614063  4.39792096
   7.58456253  5.68842173  4.39792096
   7.58456253  9.48070265  4.39792096
   1.89614063  1.89614063  6.79906479
   1.89614063  5.68842173  6.79906479
   1.89614063  9.48070265  6.79906479
   5.68842173  1.89614063  6.79906479
   5.68842173  5.68842173  6.79906479
   5.68842173  9.48070265  6.79906479
   9.48070265  1.89614063  6.79906479
   9.48070265  5.68842173  6.79906479
   9.48070265  9.48070265  6.79906479
   1.89614063  0.00000000  5.20665296
   1.89614063  3.79228126  5.20665296
   1.89614063  7.58456253  5.20665296
   5.68842173  0.00000000  5.20665296
   5.68842173  3.79228126  5.20665296
   5.68842173  7.58456253  5.20665296
   9.48070265  0.00000000  5.20665296
   9.48070265  3.79228126  5.20665296
   9.48070265  7.58456253  5.20665296
   0.00000000  0.00000000  7.60779651
   0.00000000  3.79228126  7.60779651
   0.00000000  7.58456253  7.60779651
   3.79228126  0.00000000  7.60779651
   3.79228126  3.79228126  7.60779651
   3.79228126  7.58456253  7.60779651
   7.58456253  0.00000000  7.60779651
   7.58456253  3.79228126  7.60779651
   7.58456253  7.58456253  7.60779651
   1.89614063  0.00000000  9.20020834
   1.89614063  3.79228126  9.20020834
   1.89614063  7.58456253  9.20020834
   5.68842173  0.00000000  9.20020834
   5.68842173  3.79228126  9.20020834
   5.68842173  7.58456253  9.20020834
   9.48070265  0.00000000  9.20020834
   9.48070265  3.79228126  9.20020834
   9.48070265  7.58456253  9.20020834
   0.00000000  0.00000000  1.99677755
   0.00000000  3.79228126  1.99677755
   0.00000000  7.58456253  1.99677755
   3.79228126  0.00000000  1.99677755
   3.79228126  3.79228126  1.99677755
   3.79228126  7.58456253  1.99677755
   7.58456253  0.00000000  1.99677755
   7.58456253  3.79228126  1.99677755
   7.58456253  7.58456253  1.99677755
   0.00000000  1.89614063  0.40436607
   0.00000000  5.68842173  0.40436607
   0.00000000  9.48070265  0.40436607
   3.79228126  1.89614063  0.40436607
   3.79228126  5.68842173  0.40436607
   3.79228126  9.48070265  0.40436607
   7.58456253  1.89614063  0.40436607
   7.58456253  5.68842173  0.40436607
   7.58456253  9.48070265  0.40436607
   1.89614063  1.89614063  2.80550970
   1.89614063  5.68842173  2.80550970
   1.89614063  9.48070265  2.80550970
   5.68842173  1.89614063  2.80550970
   5.68842173  5.68842173  2.80550970
   5.68842173  9.48070265  2.80550970
   9.48070265  1.89614063  2.80550970
   9.48070265  5.68842173  2.80550970
   9.48070265  9.48070265  2.80550970



--------------------------------------------------------------------------------------------------------


 k-point   1 :   0.2500 0.2500 0.2500  plane waves:   22590
 k-point   2 :  -0.2500 0.2500 0.2500  plane waves:   22590
 k-point   3 :  -0.2500-0.2500 0.2500  plane waves:   22590
 k-point   4 :   0.2500-0.2500 0.2500  plane waves:   22590

 maximum and minimum number of plane-waves per node :     22590    22590

 maximum number of plane-waves:     22590
 maximum index in each direction:
   IXMAX=   18   IYMAX=   18   IZMAX=   15
   IXMIN=  -18   IYMIN=  -18   IZMIN=  -15


 serial   3D FFT for wavefunctions
 parallel 3D FFT for charge:
    minimum data exchange during FFTs selected (reduces bandwidth)


 total amount of memory used by VASP MPI-rank0   266717. kBytes
=======================================================================

   base      :      30000. kBytes
   nonlr-proj:      19548. kBytes
   fftplans  :      10927. kBytes
   grid      :      23181. kBytes
   one-center:       1679. kBytes
   wavefun   :     181382. kBytes

     INWAV:  cpu time      0.0001: real time      0.0002
 Broyden mixing: mesh for mixing (old mesh)
   NGX = 37   NGY = 37   NGZ = 31
  (NGX  =112   NGY  =112   NGZ  = 96)
  gives a total of  42439 points

 initial charge density was supplied:
 charge density of overlapping atoms calculated
 number of electron     792.0000000 magnetization
 keeping initial charge density in first step


--------------------------------------------------------------------------------------------------------


 Maximum index for non-local projection operator         1743
 Maximum index for augmentation-charges         1189 (set IRDMAX)


--------------------------------------------------------------------------------------------------------


 First call to EWALD:  gamma=   0.165
 Maximum number of real-space cells 3x 3x 3
 Maximum number of reciprocal cells 3x 3x 3

    FEWALD:  cpu time      0.1317: real time      0.1345


--------------------------------------- Iteration      1(   1)  ---------------------------------------


    POTLOK:  cpu time      0.1701: real time      0.1721
    SETDIJ:  cpu time      0.0153: real time      0.0160
     EDDAV:  cpu time     11.5842: real time     11.7077
       DOS:  cpu time      0.0031: real time      0.0031
    --------------------------------------------
      LOOP:  cpu time     11.7727: real time     11.8990

 eigenvalue-minimisations  :  3824
 total energy-change (2. order) : 0.1155992E+05  (-0.3305549E+05)
 number of electron     792.0000000 magnetization
 augmentation part      792.0000000 magnetization

 Free energy of the ion-electron system (eV)
  ---------------------------------------------------
  alpha Z        PSCENC =      3563.47650690
  Ewald energy   TEWEN  =    -48587.85276866
  -Hartree energ DENC   =    -18841.62124343
  -exchange      EXHF   =         0.00000000
  -V(xc)+E(xc)   XCENC  =      3286.86446881
  PAW double counting   =     54431.09303398   -54537.79254336
  entropy T*S    EENTRO =        -0.15285027
  eigenvalues    EBANDS =      3589.51022304
  atomic energy  EATOM  =     68656.39924158
  Solvation  Ediel_sol  =         0.00000000
  ---------------------------------------------------
  free energy    TOTEN  =     11559.92406858 eV

  energy without entropy =    11560.07691885  energy(sigma->0) =    11560.00049372


--------------------------------------------------------------------------------------------------------




--------------------------------------- Iteration      1(   2)  ---------------------------------------


     EDDAV:  cpu time     11.5401: real time     11.6553
       DOS:  cpu time      0.0008: real time      0.0008
    --------------------------------------------
      LOOP:  cpu time     11.5409: real time     11.6561

 eigenvalue-minimisations  :  3808
 total energy-change (2. order) :-0.9987248E+04  (-0.9556755E+04)
 number of electron     792.0000000 magnetization
 augmentation part      792.0000000 magnetization

 Free energy of the ion-electron system (eV)
  ---------------------------------------------------
  alpha Z        PSCENC =      3563.47650690
  Ewald energy   TEWEN  =    -48587.85276866
  -Hartree energ DENC   =    -18841.62124343
  -exchange      EXHF   =         0.00000000
  -V(xc)+E(xc)   XCENC  =      3286.86446881
  PAW double counting   =     54431.09303398   -54537.79254336
  entropy T*S    EENTRO =        -0.28005073
  eigenvalues    EBANDS =     -6397.61046422
  atomic energy  EATOM  =     68656.39924158
  Solvation  Ediel_sol  =         0.00000000
  ---------------------------------------------------
  free energy    TOTEN  =      1572.67618087 eV

  energy without entropy =     1572.95623159  energy(sigma->0) =     1572.81620623


--------------------------------------------------------------------------------------------------------




--------------------------------------- Iteration      1(   3)  ---------------------------------------


     EDDAV:  cpu time     13.0278: real time     13.1533
       DOS:  cpu time      0.0007: real time      0.0007
    --------------------------------------------
      LOOP:  cpu time     13.0285: real time     13.1540

 eigenvalue-minimisations  :  4416
 total energy-change (2. order) :-0.2642071E+04  (-0.2570618E+04)
 number of electron     792.0000000 magnetization
 augmentation part      792.0000000 magnetization

 Free energy of the ion-electron system (eV)
  ---------------------------------------------------
  alpha Z        PSCENC =      3563.47650690
  Ewald energy   TEWEN  =    -48587.85276866
  -Hartree energ DENC   =    -18841.62124343
  -exchange      EXHF   =         0.00000000
  -V(xc)+E(xc)   XCENC  =      3286.86446881
  PAW double counting   =     54431.09303398   -54537.79254336
  entropy T*S    EENTRO =        -0.00000000
  eigenvalues    EBANDS =     -9039.96122164
  atomic energy  EATOM  =     68656.39924158
  Solvation  Ediel_sol  =         0.00000000
  ---------------------------------------------------
  free energy    TOTEN  =     -1069.39452583 eV

  energy without entropy =    -1069.39452583  energy(sigma->0) =    -1069.39452583


--------------------------------------------------------------------------------------------------------




--------------------------------------- Iteration      1(   4)  ---------------------------------------


     EDDAV:  cpu time     14.6217: real time     14.7643
       DOS:  cpu time      0.0007: real time      0.0007
    --------------------------------------------
      LOOP:  cpu time     14.6224: real time     14.7650

 eigenvalue-minimisations  :  5048
 total energy-change (2. order) :-0.2036395E+03  (-0.2024808E+03)
 number of electron     792.0000000 magnetization
 augmentation part      792.0000000 magnetization

 Free energy of the ion-electron system (eV)
  ---------------------------------------------------
  alpha Z        PSCENC =      3563.47650690
  Ewald energy   TEWEN  =    -48587.85276866
  -Hartree energ DENC   =    -18841.62124343
  -exchange      EXHF   =         0.00000000
  -V(xc)+E(xc)   XCENC  =      3286.86446881
  PAW double counting   =     54431.09303398   -54537.79254336
  entropy T*S    EENTRO =        -0.00000000
  eigenvalues    EBANDS =     -9243.60067570
  atomic energy  EATOM  =     68656.39924158
  Solvation  Ediel_sol  =         0.00000000
  ---------------------------------------------------
  free energy    TOTEN  =     -1273.03397989 eV

  energy without entropy =    -1273.03397989  energy(sigma->0) =    -1273.03397989


--------------------------------------------------------------------------------------------------------




--------------------------------------- Iteration      1(   5)  ---------------------------------------


     EDDAV:  cpu time     14.5965: real time     14.7351
       DOS:  cpu time      0.0005: real time      0.0005
    CHARGE:  cpu time      0.2090: real time      0.2179
    MIXING:  cpu time      0.0111: real time      0.0121
    --------------------------------------------
      LOOP:  cpu time     14.8171: real time     14.9656

 eigenvalue-minimisations  :  5016
 total energy-change (2. order) :-0.5597326E+01  (-0.5586299E+01)
 number of electron     792.0003054 magnetization
 augmentation part      202.2425505 magnetization

 Broyden mixing:
  rms(total) = 0.17249E+02    rms(broyden)= 0.17248E+02
  rms(prec ) = 0.19186E+02
  weight for this iteration     100.00

 Free energy of the ion-electron system (eV)
  ---------------------------------------------------
  alpha Z        PSCENC =      3563.47650690
  Ewald energy   TEWEN  =    -48587.85276866
  -Hartree energ DENC   =    -18841.62124343
  -exchange      EXHF   =         0.00000000
  -V(xc)+E(xc)   XCENC  =      3286.86446881
  PAW double counting   =     54431.09303398   -54537.79254336
  entropy T*S    EENTRO =        -0.00000000
  eigenvalues    EBANDS =     -9249.19800178
  atomic energy  EATOM  =     68656.39924158
  Solvation  Ediel_sol  =         0.00000000
  ---------------------------------------------------
  free energy    TOTEN  =     -1278.63130596 eV

  energy without entropy =    -1278.63130596  energy(sigma->0) =    -1278.63130596


--------------------------------------------------------------------------------------------------------




--------------------------------------- Iteration      1(   6)  ---------------------------------------


    POTLOK:  cpu time      0.1650: real time      0.1664
    SETDIJ:  cpu time      0.0166: real time      0.0171
     EDDAV:  cpu time     14.4123: real time     14.5497
       DOS:  cpu time      0.0005: real time      0.0005
    CHARGE:  cpu time      0.2090: real time      0.2157
    MIXING:  cpu time      0.0116: real time      0.0149
    --------------------------------------------
      LOOP:  cpu time     14.8151: real time     14.9644

 eigenvalue-minimisations  :  4984
 total energy-change (2. order) : 0.3023265E+03  (-0.1977816E+03)
 number of electron     792.0002460 magnetization
 augmentation part      214.1140659 magnetization

 Broyden mixing:
  rms(total) = 0.53125E+01    rms(broyden)= 0.53075E+01
  rms(prec ) = 0.58398E+01
  weight for this iteration     100.00

 eigenvalues of (default mixing * dielectric matrix)
  average eigenvalue GAMMA=   0.9654
  0.9654

 Free energy of the ion-electron system (eV)
  ---------------------------------------------------
  alpha Z        PSCENC =      3563.47650690
  Ewald energy   TEWEN  =    -48587.85276866
  -Hartree energ DENC   =    -19066.71737755
  -exchange      EXHF   =         0.00000000
  -V(xc)+E(xc)   XCENC  =      3337.90048591
  PAW double counting   =     68258.94814590   -68491.25540741
  entropy T*S    EENTRO =        -0.00000000
  eigenvalues    EBANDS =     -8647.20363347
  atomic energy  EATOM  =     68656.39924158
  Solvation  Ediel_sol  =         0.00000000
  ---------------------------------------------------
  free energy    TOTEN  =      -976.30480681 eV

  energy without entropy =     -976.30480681  energy(sigma->0) =     -976.30480681


--------------------------------------------------------------------------------------------------------




--------------------------------------- Iteration      1(   7)  ---------------------------------------


    POTLOK:  cpu time      0.1610: real time      0.1628
    SETDIJ:  cpu time      0.0175: real time      0.0178
     EDDAV:  cpu time     15.2487: real time     15.3900
       DOS:  cpu time      0.0005: real time      0.0005
    CHARGE:  cpu time      0.2032: real time      0.2095
    MIXING:  cpu time      0.0110: real time      0.0116
    --------------------------------------------
      LOOP:  cpu time     15.6418: real time     15.7921

 eigenvalue-minimisations  :  5336
 total energy-change (2. order) : 0.4266061E+01  (-0.2863850E+02)
 number of electron     792.0002651 magnetization
 augmentation part      207.3321668 magnetization

 Broyden mixing:
  rms(total) = 0.45957E+01    rms(broyden)= 0.45955E+01
  rms(prec ) = 0.47888E+01
  weight for this iteration     100.00

 eigenvalues of (default mixing * dielectric matrix)
  average eigenvalue GAMMA=   1.8446
  0.7377  2.9515

 Free energy of the ion-electron system (eV)
  ---------------------------------------------------
  alpha Z        PSCENC =      3563.47650690
  Ewald energy   TEWEN  =    -48587.85276866
  -Hartree energ DENC   =    -18909.46544320
  -exchange      EXHF   =         0.00000000
  -V(xc)+E(xc)   XCENC  =      3318.66813901
  PAW double counting   =     75265.10648643   -75508.41698725
  entropy T*S    EENTRO =        -0.00000000
  eigenvalues    EBANDS =     -8769.95392012
  atomic energy  EATOM  =     68656.39924158
  Solvation  Ediel_sol  =         0.00000000
  ---------------------------------------------------
  free energy    TOTEN  =      -972.03874531 eV

  energy without entropy =     -972.03874531  energy(sigma->0) =     -972.03874531


--------------------------------------------------------------------------------------------------------




--------------------------------------- Iteration      1(   8)  ---------------------------------------


    POTLOK:  cpu time      0.1693: real time      0.1707
    SETDIJ:  cpu time      0.0101: real time      0.0103
     EDDAV:  cpu time     14.5642: real time     14.6982
       DOS:  cpu time      0.0005: real time      0.0005
    CHARGE:  cpu time      0.2042: real time      0.2101
    MIXING:  cpu time      0.0109: real time      0.0110
    --------------------------------------------
      LOOP:  cpu time     14.9593: real time     15.1009

 eigenvalue-minimisations  :  5024
 total energy-change (2. order) :-0.1058036E+00  (-0.1108112E+02)
 number of electron     792.0002585 magnetization
 augmentation part      215.5829027 magnetization

 Broyden mixing:
  rms(total) = 0.33715E+01    rms(broyden)= 0.33714E+01
  rms(prec ) = 0.36707E+01
  weight for this iteration     100.00

 eigenvalues of (default mixing * dielectric matrix)
  average eigenvalue GAMMA=   1.2324
  2.1637  0.9331  0.6004

 Free energy of the ion-electron system (eV)
  ---------------------------------------------------
  alpha Z        PSCENC =      3563.47650690
  Ewald energy   TEWEN  =    -48587.85276866
  -Hartree energ DENC   =    -18532.16985410
  -exchange      EXHF   =         0.00000000
  -V(xc)+E(xc)   XCENC  =      3303.88894904
  PAW double counting   =     93878.18295689   -94193.80698749
  entropy T*S    EENTRO =        -0.00000000
  eigenvalues    EBANDS =     -9060.26259309
  atomic energy  EATOM  =     68656.39924158
  Solvation  Ediel_sol  =         0.00000000
  ---------------------------------------------------
  free energy    TOTEN  =      -972.14454893 eV

  energy without entropy =     -972.14454893  energy(sigma->0) =     -972.14454893


--------------------------------------------------------------------------------------------------------




--------------------------------------- Iteration      1(   9)  ---------------------------------------


    POTLOK:  cpu time      0.1711: real time      0.1730
    SETDIJ:  cpu time      0.0098: real time      0.0099
     EDDAV:  cpu time     14.5867: real time     14.7185
       DOS:  cpu time      0.0005: real time      0.0005
    CHARGE:  cpu time      0.2045: real time      0.2114
    MIXING:  cpu time      0.0117: real time      0.0119
    --------------------------------------------
      LOOP:  cpu time     14.9844: real time     15.1253

 eigenvalue-minimisations  :  5056
 total energy-change (2. order) : 0.5595148E+01  (-0.3490145E+01)
 number of electron     792.0002633 magnetization
 augmentation part      211.4565867 magnetization

 Broyden mixing:
  rms(total) = 0.24504E+00    rms(broyden)= 0.24427E+00
  rms(prec ) = 0.26950E+00
  weight for this iteration     100.00

 eigenvalues of (default mixing * dielectric matrix)
  average eigenvalue GAMMA=   1.2532
  2.2158  1.0871  1.0871  0.6227

 Free energy of the ion-electron system (eV)
  ---------------------------------------------------
  alpha Z        PSCENC =      3563.47650690
  Ewald energy   TEWEN  =    -48587.85276866
  -Hartree energ DENC   =    -18677.99747884
  -exchange      EXHF   =         0.00000000
  -V(xc)+E(xc)   XCENC  =      3308.82681149
  PAW double counting   =     88569.46603849   -88865.70507927
  entropy T*S    EENTRO =        -0.00000000
  eigenvalues    EBANDS =     -8933.16267221
  atomic energy  EATOM  =     68656.39924158
  Solvation  Ediel_sol  =         0.00000000
  ---------------------------------------------------
  free energy    TOTEN  =      -966.54940053 eV

  energy without entropy =     -966.54940053  energy(sigma->0) =     -966.54940053


--------------------------------------------------------------------------------------------------------




--------------------------------------- Iteration      1(  10)  ---------------------------------------


    POTLOK:  cpu time      0.1647: real time      0.1666
    SETDIJ:  cpu time      0.0176: real time      0.0178
     EDDAV:  cpu time     15.1046: real time     15.2396
       DOS:  cpu time      0.0005: real time      0.0005
    CHARGE:  cpu time      0.2034: real time      0.2097
    MIXING:  cpu time      0.0116: real time      0.0119
    --------------------------------------------
      LOOP:  cpu time     15.5023: real time     15.6460

 eigenvalue-minimisations  :  5256
 total energy-change (2. order) :-0.6289188E-01  (-0.9926329E-01)
 number of electron     792.0002623 magnetization
 augmentation part      211.5845436 magnetization

 Broyden mixing:
  rms(total) = 0.24515E+00    rms(broyden)= 0.24511E+00
  rms(prec ) = 0.27229E+00
  weight for this iteration     100.00

 eigenvalues of (default mixing * dielectric matrix)
  average eigenvalue GAMMA=   1.3280
  2.5245  1.8385  1.0221  0.6879  0.5667

 Free energy of the ion-electron system (eV)
  ---------------------------------------------------
  alpha Z        PSCENC =      3563.47650690
  Ewald energy   TEWEN  =    -48587.85276866
  -Hartree energ DENC   =    -18712.64382435
  -exchange      EXHF   =         0.00000000
  -V(xc)+E(xc)   XCENC  =      3311.40345622
  PAW double counting   =     88945.64697312   -89245.89449398
  entropy T*S    EENTRO =        -0.00000000
  eigenvalues    EBANDS =     -8897.14738324
  atomic energy  EATOM  =     68656.39924158
  Solvation  Ediel_sol  =         0.00000000
  ---------------------------------------------------
  free energy    TOTEN  =      -966.61229241 eV

  energy without entropy =     -966.61229241  energy(sigma->0) =     -966.61229241


--------------------------------------------------------------------------------------------------------




--------------------------------------- Iteration      1(  11)  ---------------------------------------


    POTLOK:  cpu time      0.1543: real time      0.1558
    SETDIJ:  cpu time      0.0261: real time      0.0263
     EDDAV:  cpu time     13.3427: real time     13.4698
       DOS:  cpu time      0.0006: real time      0.0006
    CHARGE:  cpu time      0.2058: real time      0.2076
    MIXING:  cpu time      0.0137: real time      0.0138
    --------------------------------------------
      LOOP:  cpu time     13.7431: real time     13.8738

 eigenvalue-minimisations  :  4536
 total energy-change (2. order) :-0.7615458E-02  (-0.1494164E-01)
 number of electron     792.0002620 magnetization
 augmentation part      211.4185547 magnetization

 Broyden mixing:
  rms(total) = 0.14687E+00    rms(broyden)= 0.14686E+00
  rms(prec ) = 0.17795E+00
  weight for this iteration     100.00

 eigenvalues of (default mixing * dielectric matrix)
  average eigenvalue GAMMA=   1.2822
  2.5267  1.8060  1.0769  1.0769  0.5817  0.6250

 Free energy of the ion-electron system (eV)
  ---------------------------------------------------
  alpha Z        PSCENC =      3563.47650690
  Ewald energy   TEWEN  =    -48587.85276866
  -Hartree energ DENC   =    -18741.08204349
  -exchange      EXHF   =         0.00000000
  -V(xc)+E(xc)   XCENC  =      3313.17376791
  PAW double counting   =     89222.43760244   -89525.17386856
  entropy T*S    EENTRO =        -0.00000000
  eigenvalues    EBANDS =     -8867.99834598
  atomic energy  EATOM  =     68656.39924158
  Solvation  Ediel_sol  =         0.00000000
  ---------------------------------------------------
  free energy    TOTEN  =      -966.61990787 eV

  energy without entropy =     -966.61990787  energy(sigma->0) =     -966.61990787


--------------------------------------------------------------------------------------------------------




--------------------------------------- Iteration      1(  12)  ---------------------------------------


    POTLOK:  cpu time      0.1662: real time      0.1682
    SETDIJ:  cpu time      0.0127: real time      0.0132
     EDDAV:  cpu time     15.1920: real time     15.3272
       DOS:  cpu time      0.0005: real time      0.0006
    CHARGE:  cpu time      0.2023: real time      0.2045
    MIXING:  cpu time      0.0136: real time      0.0137
    --------------------------------------------
      LOOP:  cpu time     15.5874: real time     15.7273

 eigenvalue-minimisations  :  5304
 total energy-change (2. order) : 0.2408786E-01  (-0.2645657E-01)
 number of electron     792.0002626 magnetization
 augmentation part      211.1830496 magnetization

 Broyden mixing:
  rms(total) = 0.51731E-01    rms(broyden)= 0.51648E-01
  rms(prec ) = 0.59357E-01
  weight for this iteration     100.00

 eigenvalues of (default mixing * dielectric matrix)
  average eigenvalue GAMMA=   1.2488
  2.5766  1.6427  1.6427  0.9946  0.6018  0.6018  0.6812

 Free energy of the ion-electron system (eV)
  ---------------------------------------------------
  alpha Z        PSCENC =      3563.47650690
  Ewald energy   TEWEN  =    -48587.85276866
  -Hartree energ DENC   =    -18738.22801566
  -exchange      EXHF   =         0.00000000
  -V(xc)+E(xc)   XCENC  =      3312.66272803
  PAW double counting   =     89226.34018665   -89528.15517300
  entropy T*S    EENTRO =        -0.00000000
  eigenvalues    EBANDS =     -8871.23852585
  atomic energy  EATOM  =     68656.39924158
  Solvation  Ediel_sol  =         0.00000000
  ---------------------------------------------------
  free energy    TOTEN  =      -966.59582001 eV

  energy without entropy =     -966.59582001  energy(sigma->0) =     -966.59582001


--------------------------------------------------------------------------------------------------------




--------------------------------------- Iteration      1(  13)  ---------------------------------------


    POTLOK:  cpu time      0.1588: real time      0.1605
    SETDIJ:  cpu time      0.0188: real time      0.0189
     EDDAV:  cpu time     15.0362: real time     15.1673
       DOS:  cpu time      0.0005: real time      0.0005
    CHARGE:  cpu time      0.2022: real time      0.2039
    MIXING:  cpu time      0.0130: real time      0.0131
    --------------------------------------------
      LOOP:  cpu time     15.4295: real time     15.5641

 eigenvalue-minimisations  :  5224
 total energy-change (2. order) : 0.3827536E-03  (-0.1332437E-02)
 number of electron     792.0002626 magnetization
 augmentation part      211.2269180 magnetization

 Broyden mixing:
  rms(total) = 0.23386E-01    rms(broyden)= 0.23379E-01
  rms(prec ) = 0.28355E-01
  weight for this iteration     100.00

 eigenvalues of (default mixing * dielectric matrix)
  average eigenvalue GAMMA=   1.1980
  2.5637  1.6888  1.6888  1.0122  0.6186  0.5838  0.7140  0.7140

 Free energy of the ion-electron system (eV)
  ---------------------------------------------------
  alpha Z        PSCENC =      3563.47650690
  Ewald energy   TEWEN  =    -48587.85276866
  -Hartree energ DENC   =    -18737.72365373
  -exchange      EXHF   =         0.00000000
  -V(xc)+E(xc)   XCENC  =      3312.66047154
  PAW double counting   =     89264.35962218   -89566.13709884
  entropy T*S    EENTRO =        -0.00000000
  eigenvalues    EBANDS =     -8871.77775823
  atomic energy  EATOM  =     68656.39924158
  Solvation  Ediel_sol  =         0.00000000
  ---------------------------------------------------
  free energy    TOTEN  =      -966.59543726 eV

  energy without entropy =     -966.59543726  energy(sigma->0) =     -966.59543726


--------------------------------------------------------------------------------------------------------




--------------------------------------- Iteration      1(  14)  ---------------------------------------


    POTLOK:  cpu time      0.1644: real time      0.1665
    SETDIJ:  cpu time      0.0162: real time      0.0163
     EDDAV:  cpu time     15.2110: real time     15.3453
       DOS:  cpu time      0.0031: real time      0.0031
    CHARGE:  cpu time      0.2035: real time      0.2046
    MIXING:  cpu time      0.0114: real time      0.1010
    --------------------------------------------
      LOOP:  cpu time     15.6096: real time     15.8369

 eigenvalue-minimisations  :  5312
 total energy-change (2. order) : 0.1470474E-03  (-0.1146649E-03)
 number of electron     792.0002626 magnetization
 augmentation part      211.2209439 magnetization

 Broyden mixing:
  rms(total) = 0.19019E-01    rms(broyden)= 0.19018E-01
  rms(prec ) = 0.22568E-01
  weight for this iteration     100.00

 eigenvalues of (default mixing * dielectric matrix)
  average eigenvalue GAMMA=   1.2396
  2.5263  1.9665  1.9665  1.0123  0.9438  0.9438  0.6580  0.5698  0.5698

 Free energy of the ion-electron system (eV)
  ---------------------------------------------------
  alpha Z        PSCENC =      3563.47650690
  Ewald energy   TEWEN  =    -48587.85276866
  -Hartree energ DENC   =    -18739.01189537
  -exchange      EXHF   =         0.00000000
  -V(xc)+E(xc)   XCENC  =      3312.73288754
  PAW double counting   =     89244.45110277   -89546.13424120
  entropy T*S    EENTRO =        -0.00000000
  eigenvalues    EBANDS =     -8870.65612378
  atomic energy  EATOM  =     68656.39924158
  Solvation  Ediel_sol  =         0.00000000
  ---------------------------------------------------
  free energy    TOTEN  =      -966.59529021 eV

  energy without entropy =     -966.59529021  energy(sigma->0) =     -966.59529021


--------------------------------------------------------------------------------------------------------




--------------------------------------- Iteration      1(  15)  ---------------------------------------


    POTLOK:  cpu time      0.1563: real time      0.1579
    SETDIJ:  cpu time      0.0238: real time      0.0242
     EDDAV:  cpu time     15.3037: real time     15.4416
       DOS:  cpu time      0.0005: real time      0.0005
    CHARGE:  cpu time      0.2151: real time      0.2163
    MIXING:  cpu time      0.0138: real time      0.0139
    --------------------------------------------
      LOOP:  cpu time     15.7132: real time     15.8544

 eigenvalue-minimisations  :  5336
 total energy-change (2. order) : 0.2136365E-04  (-0.1526460E-03)
 number of electron     792.0002625 magnetization
 augmentation part      211.2307366 magnetization

 Broyden mixing:
  rms(total) = 0.93338E-02    rms(broyden)= 0.93298E-02
  rms(prec ) = 0.11328E-01
  weight for this iteration     100.00

 eigenvalues of (default mixing * dielectric matrix)
  average eigenvalue GAMMA=   1.2302
  2.6449  2.4042  2.0261  0.9275  0.9275  0.8167  0.8167  0.6030  0.5677  0.5677

 Free energy of the ion-electron system (eV)
  ---------------------------------------------------
  alpha Z        PSCENC =      3563.47650690
  Ewald energy   TEWEN  =    -48587.85276866
  -Hartree energ DENC   =    -18740.06635065
  -exchange      EXHF   =         0.00000000
  -V(xc)+E(xc)   XCENC  =      3312.79446684
  PAW double counting   =     89230.24811801   -89531.77424182
  entropy T*S    EENTRO =        -0.00000000
  eigenvalues    EBANDS =     -8869.82024104
  atomic energy  EATOM  =     68656.39924158
  Solvation  Ediel_sol  =         0.00000000
  ---------------------------------------------------
  free energy    TOTEN  =      -966.59526885 eV

  energy without entropy =     -966.59526885  energy(sigma->0) =     -966.59526885


--------------------------------------------------------------------------------------------------------




--------------------------------------- Iteration      1(  16)  ---------------------------------------


    POTLOK:  cpu time      0.1643: real time      0.1658
    SETDIJ:  cpu time      0.0105: real time      0.0117
     EDDAV:  cpu time     15.1155: real time     15.2575
       DOS:  cpu time      0.0005: real time      0.0005
    CHARGE:  cpu time      0.2045: real time      0.2077
    MIXING:  cpu time      0.0143: real time      0.0144
    --------------------------------------------
      LOOP:  cpu time     15.5095: real time     15.6575

 eigenvalue-minimisations  :  5272
 total energy-change (2. order) : 0.5628745E-04  (-0.8373711E-04)
 number of electron     792.0002625 magnetization
 augmentation part      211.2435236 magnetization

 Broyden mixing:
  rms(total) = 0.47574E-02    rms(broyden)= 0.47533E-02
  rms(prec ) = 0.55785E-02
  weight for this iteration     100.00

 eigenvalues of (default mixing * dielectric matrix)
  average eigenvalue GAMMA=   1.2160
  2.7464  2.4482  1.8576  0.8530  0.8530  1.0226  1.0226  0.8084  0.6218  0.6218
  0.5205

 Free energy of the ion-electron system (eV)
  ---------------------------------------------------
  alpha Z        PSCENC =      3563.47650690
  Ewald energy   TEWEN  =    -48587.85276866
  -Hartree energ DENC   =    -18740.63708167
  -exchange      EXHF   =         0.00000000
  -V(xc)+E(xc)   XCENC  =      3312.83872393
  PAW double counting   =     89229.81876387   -89531.31143715
  entropy T*S    EENTRO =        -0.00000000
  eigenvalues    EBANDS =     -8869.32716136
  atomic energy  EATOM  =     68656.39924158
  Solvation  Ediel_sol  =         0.00000000
  ---------------------------------------------------
  free energy    TOTEN  =      -966.59521256 eV

  energy without entropy =     -966.59521256  energy(sigma->0) =     -966.59521256


--------------------------------------------------------------------------------------------------------




--------------------------------------- Iteration      1(  17)  ---------------------------------------


    POTLOK:  cpu time      0.1688: real time      0.1703
    SETDIJ:  cpu time      0.0139: real time      0.0140
     EDDAV:  cpu time     15.1838: real time     15.3241
       DOS:  cpu time      0.0005: real time      0.0005
    CHARGE:  cpu time      0.2036: real time      0.2056
    MIXING:  cpu time      0.0144: real time      0.0145
    --------------------------------------------
      LOOP:  cpu time     15.5851: real time     15.7289

 eigenvalue-minimisations  :  5304
 total energy-change (2. order) : 0.6400718E-05  (-0.1976418E-04)
 number of electron     792.0002625 magnetization
 augmentation part      211.2408825 magnetization

 Broyden mixing:
  rms(total) = 0.21610E-02    rms(broyden)= 0.21579E-02
  rms(prec ) = 0.26585E-02
  weight for this iteration     100.00

 eigenvalues of (default mixing * dielectric matrix)
  average eigenvalue GAMMA=   1.1727
  2.8550  2.3883  1.9047  1.0654  1.0654  0.8684  0.8684  0.6641  0.6641  0.6191
  0.5549  0.5549

 Free energy of the ion-electron system (eV)
  ---------------------------------------------------
  alpha Z        PSCENC =      3563.47650690
  Ewald energy   TEWEN  =    -48587.85276866
  -Hartree energ DENC   =    -18740.90026409
  -exchange      EXHF   =         0.00000000
  -V(xc)+E(xc)   XCENC  =      3312.85251276
  PAW double counting   =     89226.93142635   -89528.43450211
  entropy T*S    EENTRO =        -0.00000000
  eigenvalues    EBANDS =     -8869.06735888
  atomic energy  EATOM  =     68656.39924158
  Solvation  Ediel_sol  =         0.00000000
  ---------------------------------------------------
  free energy    TOTEN  =      -966.59520616 eV

  energy without entropy =     -966.59520616  energy(sigma->0) =     -966.59520616


--------------------------------------------------------------------------------------------------------




--------------------------------------- Iteration      1(  18)  ---------------------------------------


    POTLOK:  cpu time      0.1660: real time      0.1675
    SETDIJ:  cpu time      0.0160: real time      0.0167
     EDDAV:  cpu time     14.9142: real time     15.0489
       DOS:  cpu time      0.0005: real time      0.0005
    CHARGE:  cpu time      0.2056: real time      0.2067
    MIXING:  cpu time      0.0156: real time      0.0157
    --------------------------------------------
      LOOP:  cpu time     15.3179: real time     15.4560

 eigenvalue-minimisations  :  5184
 total energy-change (2. order) :-0.4850197E-05  (-0.3208774E-05)
 number of electron     792.0002625 magnetization
 augmentation part      211.2426463 magnetization

 Broyden mixing:
  rms(total) = 0.26686E-02    rms(broyden)= 0.26684E-02
  rms(prec ) = 0.31689E-02
  weight for this iteration     100.00

 eigenvalues of (default mixing * dielectric matrix)
  average eigenvalue GAMMA=   1.1693
  2.9127  2.3743  1.8444  1.3052  1.0478  0.8264  0.8264  0.8661  0.8661  0.6546
  0.5933  0.5933  0.4900

 Free energy of the ion-electron system (eV)
  ---------------------------------------------------
  alpha Z        PSCENC =      3563.47650690
  Ewald energy   TEWEN  =    -48587.85276866
  -Hartree energ DENC   =    -18740.86299105
  -exchange      EXHF   =         0.00000000
  -V(xc)+E(xc)   XCENC  =      3312.85026570
  PAW double counting   =     89228.83271372   -89530.34263183
[...]
      7.58456      3.79228      1.99678    -0.00344  0.02169 -2.89182 ( -0.63489  6.00000)
      7.58456      7.58456      1.99678    -0.00341 -0.02171 -2.89183 ( -0.63489  6.00000)
      0.00000      1.89614      0.40437    -0.00092 -0.00010 -2.89451 ( -0.63483  6.00000)
      0.00000      5.68842      0.40437    -0.00153 -0.00000 -2.89350 ( -0.63480  6.00000)
      0.00000      9.48070      0.40437    -0.00091  0.00009 -2.89452 ( -0.63483  6.00000)
      3.79228      1.89614      0.40437     0.00023 -0.00601 -2.89209 ( -0.63485  6.00000)
      3.79228      5.68842      0.40437    -0.00073 -0.00001 -2.90945 ( -0.63493  6.00000)
      3.79228      9.48070      0.40437     0.00025  0.00601 -2.89208 ( -0.63485  6.00000)
      7.58456      1.89614      0.40437     0.00056  0.00600 -2.89688 ( -0.63483  6.00000)
      7.58456      5.68842      0.40437     0.00010 -0.00001 -2.87060 ( -0.63466  6.00000)
      7.58456      9.48070      0.40437     0.00054 -0.00599 -2.89689 ( -0.63483  6.00000)
      1.89614      1.89614      2.80551    -0.00234  0.00006 -2.89450 ( -0.63483  6.00000)
      1.89614      5.68842      2.80551    -0.02037  0.00001 -2.85577 ( -0.63485  6.00000)
      1.89614      9.48070      2.80551    -0.00232 -0.00006 -2.89449 ( -0.63483  6.00000)
      5.68842      1.89614      2.80551     0.00316  0.00000 -2.89510 ( -0.63482  6.00000)
      5.68842      5.68842      2.80551     0.02106 -0.00000 -2.88208 ( -0.63454  6.00000)
      5.68842      9.48070      2.80551     0.00319 -0.00001 -2.89512 ( -0.63482  6.00000)
      9.48070      1.89614      2.80551    -0.00069  0.00033 -2.89445 ( -0.63485  6.00000)
      9.48070      5.68842      2.80551    -0.02262 -0.00001 -2.92821 ( -0.63478  6.00000)
      9.48070      9.48070      2.80551    -0.00071 -0.00033 -2.89447 ( -0.63485  6.00000)
 -----------------------------------------------------------------------------------------
    total drift (improves with k-points):  -0.00014  0.00001 -0.07374




--------------------------------------------------------------------------------------------------------




 MACROSCOPIC STATIC DIELECTRIC TENSOR (including local field effects in DFT)
 ------------------------------------------------------
           6.953771     0.000007    -0.022987
           0.000008     6.957956     0.000000
          -0.022998    -0.000004     6.371485
 ------------------------------------------------------



--------------------------------------------------------------------------------------------------------




--------------------------------------------------------------------------------------------------------




 MACROSCOPIC STATIC DIELECTRIC TENSOR (including local field effects in DFT)
 ------------------------------------------------------
           6.953771     0.000007    -0.022987
           0.000008     6.957956     0.000000
          -0.022998    -0.000004     6.371485
 ------------------------------------------------------


 PIEZOELECTRIC TENSOR (including local field effects)  for field in x, y, z        (e  Angst)
          XX          YY          ZZ          XY          YZ          ZX
  --------------------------------------------------------------------------------
  x     0.07234     0.52706     0.87057    -0.00011    -0.00015    -0.03680
  y    -0.00018    -0.00090     0.00114     0.43787     0.04104    -0.00142
  z    -0.05216    -0.04981     0.02628    -0.00013     0.00002    -0.02020

 PIEZOELECTRIC TENSOR (including local field effects)  for field in x, y, z        (C/m^2)
          XX          YY          ZZ          XY          YZ          ZX
  --------------------------------------------------------------------------------
  x     0.00093     0.00679     0.01122    -0.00000    -0.00000    -0.00047
  y    -0.00000    -0.00001     0.00001     0.00564     0.00053    -0.00002
  z    -0.00067    -0.00064     0.00034    -0.00000     0.00000    -0.00026

 BORN EFFECTIVE CHARGES (including local field effects) (in |e|, cummulative output)
 ---------------------------------------------------------------------------------
 ion    1
    1     6.65770     0.00630     0.01568
    2    -0.00121     6.64855    -0.00338
    3    -0.00336    -0.00219     5.77953
 ion    2
    1     6.60062     0.00003     0.04471
    2    -0.00002     6.62759    -0.00002
    3    -0.28317    -0.00001     5.76409
 ion    3
    1     6.65777    -0.00633     0.01564
    2     0.00123     6.64862     0.00342
    3    -0.00338     0.00220     5.77953
 ion    4
    1     6.66255     0.02971     0.00369
    2    -0.00023     6.65205    -0.00097
    3     0.00389     0.00630     5.78782
 ion    5
    1     6.57370    -0.00002    -0.33090
    2     0.00003     6.59610    -0.00002
    3    -0.35305    -0.00001     5.74932
 ion    6
    1     6.66253    -0.02972     0.00368
    2     0.00030     6.65203     0.00090
    3     0.00386    -0.00636     5.78783
 ion    7
    1     6.65778     0.01625     0.01803
    2     0.00126     6.67110     0.00326
    3    -0.00566    -0.00260     5.79574
 ion    8
    1     6.59892     0.00003     0.02813
    2     0.00005     6.68660     0.00002
    3    -0.27706     0.00001     5.80953
 ion    9
    1     6.65781    -0.01624     0.01809
    2    -0.00121     6.67106    -0.00322
    3    -0.00563     0.00264     5.79575
 ion   10
    1     6.65956    -0.00001    -0.01012
    2    -0.00001     6.66123     0.00003
    3     0.00095     0.00003     5.78737
 ion   11
    1     6.65737     0.00488    -0.01813
    2    -0.00029     6.68615     0.02977
    3     0.00343    -0.00235     5.81263
 ion   12
    1     6.65737    -0.00484    -0.01817
    2     0.00023     6.68609    -0.02977
    3     0.00349     0.00241     5.81261
 ion   13
    1     6.65785    -0.00001    -0.00186
    2    -0.00003     6.65592     0.00001
    3    -0.00015     0.00002     5.78558
 ion   14
    1     6.65975     0.03727    -0.02671
    2    -0.00023     6.66602     0.01083
    3    -0.00021     0.01103     5.78121
 ion   15
    1     6.65969    -0.03723    -0.02674
    2     0.00015     6.66605    -0.01077
    3    -0.00019    -0.01098     5.78120
 ion   16
    1     6.65937     0.00004    -0.01277
    2    -0.00002     6.65761    -0.00001
    3    -0.00089     0.00001     5.78829
 ion   17
    1     6.65750     0.00891    -0.02679
    2     0.00011     6.63462    -0.03036
    3    -0.00319     0.00124     5.76613
 ion   18
    1     6.65753    -0.00890    -0.02682
    2    -0.00015     6.63458     0.03041
    3    -0.00318    -0.00123     5.76614
 ion   19
    1     6.65523     0.00002     0.00434
    2     0.00001     6.65650    -0.00004
    3    -0.00149     0.00001     5.78705
 ion   20
    1     6.65655    -0.00282     0.00848
    2     0.00001     6.66033     0.00037
    3    -0.00564    -0.00044     5.78659
 ion   21
    1     6.65653     0.00283     0.00849
    2    -0.00002     6.66028    -0.00036
    3    -0.00559     0.00047     5.78658
 ion   22
    1     6.66196    -0.00000    -0.01374
    2    -0.00002     6.66200    -0.00001
    3     0.00146     0.00001     5.78804
 ion   23
    1     6.66375    -0.02504    -0.04239
    2     0.00002     6.68309    -0.01373
    3     0.00419     0.00023     5.80114
 ion   24
    1     6.66379     0.02503    -0.04237
    2    -0.00002     6.68314     0.01371
    3     0.00423    -0.00021     5.80113
 ion   25
    1     6.66183    -0.00002    -0.01323
    2     0.00001     6.65636    -0.00000
    3     0.00021     0.00001     5.78649
 ion   26
    1     6.66336    -0.02118    -0.04149
    2     0.00002     6.63618     0.01602
    3     0.00263     0.00005     5.76943
 ion   27
    1     6.66336     0.02116    -0.04151
    2    -0.00005     6.63623    -0.01611
    3     0.00263    -0.00004     5.76945
 ion   28
    1     6.65654    -0.00174    -0.01029
    2    -0.00001     6.66102    -0.00029
    3     0.00013    -0.00048     5.78721
 ion   29
    1     6.64420     0.00004    -0.03390
    2     0.00001     6.65651     0.00001
    3     0.00071     0.00001     5.78708
 ion   30
    1     6.65652     0.00179    -0.01032
    2     0.00003     6.66101     0.00026
    3     0.00009     0.00051     5.78722
 ion   31
    1     6.66289    -0.02834     0.01850
    2    -0.00041     6.65417     0.00390
    3     0.00058    -0.00250     5.78640
 ion   32
    1     6.66881    -0.00000    -0.25185
    2    -0.00003     6.62289    -0.00005
    3    -0.00104     0.00003     5.82139
 ion   33
    1     6.66295     0.02841     0.01848
    2     0.00041     6.65422    -0.00395
    3     0.00055     0.00253     5.78640
 ion   34
    1     6.66262    -0.02261     0.01992
    2     0.00042     6.66803    -0.00513
    3    -0.00067     0.00118     5.79153
 ion   35
    1     6.66530     0.00001    -0.20596
    2    -0.00007     6.69764    -0.00003
    3     0.00078     0.00001     5.72120
 ion   36
    1     6.66265     0.02265     0.01993
    2    -0.00039     6.66806     0.00510
    3    -0.00066    -0.00119     5.79156
 ion   37
    1    -5.53372     0.00198     0.00818
    2    -0.00658    -1.12341     0.00001
    3     0.00853     0.00016    -2.89355
 ion   38
    1    -5.51054    -0.00002     0.01718
    2     0.00003    -1.12143    -0.00000
    3     0.17469    -0.00001    -2.89238
 ion   39
    1    -5.53375    -0.00198     0.00820
    2     0.00654    -1.12339    -0.00002
    3     0.00851    -0.00017    -2.89355
 ion   40
    1    -5.53965    -0.00163    -0.01644
    2     0.00196    -1.11902     0.00115
    3    -0.00531     0.00164    -2.89594
 ion   41
    1    -5.28882    -0.00001     0.27390
    2    -0.00000    -1.14961    -0.00003
    3     0.28538    -0.00001    -2.93542
 ion   42
    1    -5.53964     0.00166    -0.01643
    2    -0.00196    -1.11906    -0.00117
    3    -0.00529    -0.00166    -2.89594
 ion   43
    1    -5.53469    -0.00372    -0.01845
    2    -0.00090    -1.12551     0.00052
    3    -0.00054    -0.00233    -2.89376
 ion   44
    1    -5.66030    -0.00001     0.26494
    2    -0.00004    -1.07998     0.00001
    3     0.28064    -0.00001    -2.82694
 ion   45
    1    -5.53467     0.00370    -0.01849
    2     0.00087    -1.12551    -0.00054
    3    -0.00055     0.00232    -2.89379
 ion   46
    1    -1.12613    -0.00455     0.00227
    2     0.00066    -5.53639     0.00143
    3     0.00015     0.01097    -2.89017
 ion   47
    1    -1.11968     0.00000     0.01863
    2     0.00005    -5.57866     0.00003
    3     0.00908     0.00000    -2.89686
 ion   48
    1    -1.12620     0.00453     0.00229
    2    -0.00065    -5.53638    -0.00149
    3     0.00021    -0.01100    -2.89016
 ion   49
    1    -1.12335    -0.00469     0.00011
    2    -0.00265    -5.53634    -0.00037
    3     0.00232     0.00007    -2.89328
 ion   50
    1    -1.11803    -0.00001     0.06117
    2     0.00003    -5.54913    -0.00002
    3     0.09696    -0.00001    -2.86542
 ion   51
    1    -1.12331     0.00468     0.00015
    2     0.00262    -5.53636     0.00038
    3     0.00231    -0.00008    -2.89329
 ion   52
    1    -1.11997    -0.00714     0.00353
    2     0.00063    -5.53691    -0.00172
    3     0.00078    -0.01044    -2.89914
 ion   53
    1    -1.12426    -0.00001     0.02522
    2    -0.00003    -5.49541    -0.00004
    3     0.01006    -0.00000    -2.89385
 ion   54
    1    -1.11996     0.00713     0.00351
    2    -0.00060    -5.53688     0.00170
    3     0.00078     0.01041    -2.89910
 ion   55
    1    -1.12624     0.00001     0.00126
    2     0.00001    -5.53788    -0.00003
    3    -0.00030    -0.00001    -2.89049
 ion   56
    1    -1.11386    -0.03131    -0.00228
    2     0.01049    -5.51563    -0.03258
    3     0.00977     0.02037    -2.91170
 ion   57
    1    -1.11382     0.03130    -0.00228
    2    -0.01048    -5.51564     0.03257
    3     0.00971    -0.02036    -2.91169
 ion   58
    1    -1.12282    -0.00002     0.00418
    2     0.00001    -5.53521     0.00002
    3     0.00236     0.00004    -2.89272
 ion   59
    1    -1.11789    -0.08230     0.01079
    2    -0.13306    -5.50623    -0.01362
    3     0.01793    -0.01132    -2.89230
 ion   60
    1    -1.11786     0.08232     0.01081
    2     0.13306    -5.50625     0.01361
    3     0.01794     0.01133    -2.89232
 ion   61
    1    -1.11930    -0.00002     0.00228
    2    -0.00000    -5.53667    -0.00003
    3     0.00007    -0.00002    -2.89807
 ion   62
    1    -1.12485    -0.05003     0.00536
    2     0.00931    -5.55429     0.03272
    3     0.01018    -0.01331    -2.87793
 ion   63
    1    -1.12485     0.05001     0.00537
    2    -0.00929    -5.55426    -0.03278
    3     0.01020     0.01331    -2.87793
 ion   64
    1    -5.53563    -0.00003    -0.00356
    2    -0.00001    -1.12222     0.00000
    3     0.00175    -0.00002    -2.89333
 ion   65
    1    -5.53368     0.00076    -0.00909
    2    -0.00401    -1.12342    -0.00008
    3     0.00746     0.00016    -2.89377
 ion   66
    1    -5.53367    -0.00075    -0.00906
    2     0.00401    -1.12338     0.00003
    3     0.00742    -0.00019    -2.89378
 ion   67
    1    -5.53679     0.00002     0.00806
    2     0.00002    -1.12150    -0.00001
    3    -0.00079     0.00000    -2.89644
 ion   68
    1    -5.54760    -0.00257     0.02161
    2     0.00277    -1.12423    -0.00175
    3    -0.00727    -0.00315    -2.90001
 ion   69
    1    -5.54759     0.00253     0.02157
    2    -0.00279    -1.12423     0.00174
    3    -0.00729     0.00313    -2.90000
 ion   70
    1    -5.53770    -0.00001     0.00840
    2    -0.00001    -1.12276    -0.00003
    3     0.00004    -0.00002    -2.89146
 ion   71
    1    -5.52492    -0.00366     0.02399
    2     0.00392    -1.12339     0.00124
    3     0.00004     0.00044    -2.88516
 ion   72
    1    -5.52495     0.00369     0.02403
    2    -0.00389    -1.12343    -0.00121
    3     0.00003    -0.00044    -2.88515
 ion   73
    1    -5.53522     0.00000     0.00674
    2    -0.00002    -1.12169     0.00001
    3     0.00052    -0.00001    -2.89575
 ion   74
    1    -5.53378     0.00251     0.01588
    2    -0.00198    -1.12506    -0.00163
    3     0.00136     0.00126    -2.90006
 ion   75
    1    -5.53375    -0.00250     0.01588
    2     0.00199    -1.12505     0.00164
    3     0.00132    -0.00128    -2.90005
 ion   76
    1    -5.53972     0.00000    -0.00050
    2     0.00002    -1.12222     0.00002
    3    -0.00082     0.00000    -2.89281
 ion   77
    1    -5.54257     0.00051     0.00291
    2     0.00443    -1.12364    -0.00063
    3    -0.00349    -0.00004    -2.89225
 ion   78
    1    -5.54255    -0.00049     0.00294
    2    -0.00442    -1.12365     0.00063
    3    -0.00350     0.00004    -2.89224
 ion   79
    1    -5.53688     0.00001     0.00710
    2     0.00001    -1.12306     0.00001
    3     0.00033     0.00000    -2.89178
 ion   80
    1    -5.53668     0.00183     0.01746
    2    -0.00229    -1.12176     0.00159
    3     0.00165    -0.00138    -2.88721
 ion   81
    1    -5.53668    -0.00182     0.01746
    2     0.00231    -1.12174    -0.00159
    3     0.00165     0.00138    -2.88721
 ion   82
    1    -1.12168    -0.00004     0.00103
    2     0.00000    -5.53770     0.00005
    3     0.00156    -0.00001    -2.89320
 ion   83
    1    -1.12111    -0.00411     0.00295
    2     0.00331    -5.53679    -0.00044
    3     0.00520     0.00035    -2.89336
 ion   84
    1    -1.12106     0.00410     0.00294
    2    -0.00331    -5.53676     0.00045
    3     0.00516    -0.00036    -2.89336
 ion   85
    1    -1.12719    -0.00001     0.00269
    2     0.00003    -5.53547     0.00002
    3    -0.00065    -0.00002    -2.89228
 ion   86
    1    -1.13114     0.05304     0.02110
    2    -0.00221    -5.52315     0.01870
    3    -0.00314    -0.01701    -2.89397
 ion   87
    1    -1.13116    -0.05305     0.02108
    2     0.00219    -5.52319    -0.01863
    3    -0.00317     0.01698    -2.89396
 ion   88
    1    -1.12025     0.00001     0.00161
    2    -0.00002    -5.53981     0.00002
    3    -0.00068     0.00001    -2.89522
 ion   89
    1    -1.11713     0.04269     0.01745
    2    -0.00173    -5.55150    -0.02088
    3    -0.00344     0.02169    -2.89114
 ion   90
    1    -1.11712    -0.04270     0.01747
    2     0.00180    -5.55153     0.02095
    3    -0.00341    -0.02171    -2.89115
 ion   91
    1    -1.12191    -0.00028    -0.00060
    2     0.00047    -5.53659     0.00009
    3    -0.00092    -0.00010    -2.89383
 ion   92
    1    -1.12138    -0.00002     0.00326
    2    -0.00002    -5.53700     0.00000
    3    -0.00153    -0.00000    -2.89282
 ion   93
    1    -1.12192     0.00025    -0.00061
    2    -0.00047    -5.53659    -0.00004
    3    -0.00091     0.00009    -2.89384
 ion   94
    1    -1.12652     0.01013     0.00387
    2     0.00003    -5.53896    -0.00210
    3     0.00023    -0.00601    -2.89141
 ion   95
    1    -1.13670    -0.00000     0.05936
    2     0.00002    -5.57120     0.00004
    3    -0.00072    -0.00001    -2.90877
 ion   96
    1    -1.12652    -0.01013     0.00387
    2    -0.00005    -5.53897     0.00215
    3     0.00025     0.00601    -2.89140
 ion   97
    1    -1.12104     0.00794     0.00322
    2    -0.00030    -5.53427     0.00242
    3     0.00056     0.00600    -2.89619
 ion   98
    1    -1.11013    -0.00000     0.04876
    2    -0.00001    -5.50016     0.00002
    3     0.00010    -0.00001    -2.86992
 ion   99
    1    -1.12105    -0.00793     0.00322
    2     0.00030    -5.53427    -0.00238
    3     0.00054    -0.00599    -2.89621
 ion  100
    1    -5.53339     0.00347    -0.01112
    2    -0.00082    -1.12128    -0.00141
    3    -0.00234     0.00006    -2.89382
 ion  101
    1    -5.47810    -0.00001    -0.03601
    2    -0.00002    -1.12268     0.00002
    3    -0.02037     0.00001    -2.85509
 ion  102
    1    -5.53345    -0.00350    -0.01105
    2     0.00083    -1.12129     0.00141
    3    -0.00232    -0.00006    -2.89380
 ion  103
    1    -5.54144     0.00187     0.00091
    2     0.00240    -1.12338     0.00038
    3     0.00316     0.00000    -2.89442
 ion  104
    1    -5.53752     0.00000     0.04966
    2     0.00003    -1.12196    -0.00001
    3     0.02106    -0.00000    -2.88140
 ion  105
    1    -5.54142    -0.00189     0.00091
    2    -0.00242    -1.12334    -0.00034
    3     0.00319    -0.00001    -2.89443
 ion  106
    1    -5.53677     0.00308    -0.01217
    2    -0.00139    -1.12602     0.00182
    3    -0.00069     0.00033    -2.89376
 ion  107
    1    -5.57181    -0.00003    -0.04807
    2     0.00001    -1.12182     0.00001
    3    -0.02262    -0.00001    -2.92753
 ion  108
    1    -5.53677    -0.00306    -0.01222
    2     0.00139    -1.12605    -0.00183
    3    -0.00070    -0.00033    -2.89379


--------------------------------------------------------------------------------------------------------


     LOOP+:  cpu time   2205.8023: real time   2254.5853
    4ORBIT:  cpu time      0.0000: real time      0.0000

 total amount of memory used by VASP MPI-rank0   266717. kBytes
=======================================================================

   base      :      30000. kBytes
   nonlr-proj:      19548. kBytes
   fftplans  :      10927. kBytes
   grid      :      23181. kBytes
   one-center:       1679. kBytes
   wavefun   :     181382. kBytes



 General timing and accounting informations for this job:
 ========================================================

                  Total CPU time used (sec):     2214.015
                            User time (sec):     2148.842
                          System time (sec):       65.173
                         Elapsed time (sec):     2273.490

                   Maximum memory used (kb):     1094716.
                   Average memory used (kb):          N/A

                          Minor page faults:      1007634
                          Major page faults:           18
                 Voluntary context switches:       102634
