 vasp.6.3.0 20Jan22 (build Mar 29 2022 16:24:06) complex

 executed on             Bridges2 date 2023.01.10  17:42:34
 running on   32 total cores
 distrk:  each k-point on    4 cores,    8 groups
 distr:  one band on NCORE=   1 cores,    4 groups


--------------------------------------------------------------------------------------------------------


 INCAR:
   ICHARG = 2
   LWAVE = .FALSE.
   LCHARG = .FALSE.
   LVTOT = .FALSE.
   NCORE = 1
   KPAR = 8
   EDIFF = 1E-7
   NELM = 80
   PREC = Normal
   LREAL = Auto
   NELMIN = 4
   ENCUT = 400.0 eV
   ISPIN = 1
   ISMEAR = 0
   SIGMA = 0.10
   NSW = 0
   LEPSILON = .TRUE.
   LPEAD = .TRUE.
   ISYM = 0

 POTCAR:    PAW_PBE Ti_pv 07Sep2000
 POTCAR:    PAW_PBE O 08Apr2002
 -----------------------------------------------------------------------------
|                                                                             |
|           W    W    AA    RRRRR   N    N  II  N    N   GGGG   !!!           |
|           W    W   A  A   R    R  NN   N  II  NN   N  G    G  !!!           |
|           W    W  A    A  R    R  N N  N  II  N N  N  G       !!!           |
|           W WW W  AAAAAA  RRRRR   N  N N  II  N  N N  G  GGG   !            |
|           WW  WW  A    A  R   R   N   NN  II  N   NN  G    G                |
|           W    W  A    A  R    R  N    N  II  N    N   GGGG   !!!           |
|                                                                             |
|     For optimal performance we recommend to set                             |
|       NCORE = 2 up to number-of-cores-per-socket                            |
|     NCORE specifies how many cores store one orbital (NPAR=cpu/NCORE).      |
|     This setting can greatly improve the performance of VASP for DFT.       |
|     The default, NCORE=1 might be grossly inefficient on modern             |
|     multi-core architectures or massively parallel machines. Do your        |
|     own testing! More info at https://www.vasp.at/wiki/index.php/NCORE      |
|     Unfortunately you need to use the default for GW and RPA                |
|     calculations (for HF NCORE is supported but not extensively tested      |
|     yet).                                                                   |
|                                                                             |
 -----------------------------------------------------------------------------

 POTCAR:    PAW_PBE Ti_pv 07Sep2000
   VRHFIN =Ti: d3 s1
   LEXCH  = PE
   EATOM  =  1042.5995 eV,   76.6289 Ry

   TITEL  = PAW_PBE Ti_pv 07Sep2000
   LULTRA =        F    use ultrasoft PP ?
   IUNSCR =        1    unscreen: 0-lin 1-nonlin 2-no
   RPACOR =    2.200    partial core radius
   POMASS =   47.880; ZVAL   =   10.000    mass and valenz
   RCORE  =    2.500    outmost cutoff radius
   RWIGS  =    2.500; RWIGS  =    1.323    wigner-seitz radius (au A)
   ENMAX  =  222.335; ENMIN  =  166.751 eV
   RCLOC  =    1.701    cutoff for local pot
   LCOR   =        T    correct aug charges
   LPAW   =        T    paw PP
   EAUG   =  482.848
   DEXC   =    0.000
   RMAX   =    2.564    core radius for proj-oper
   RAUG   =    1.300    factor for augmentation sphere
   RDEP   =    2.538    radius for radial grids
   RDEPT  =    1.952    core radius for aug-charge

   Atomic configuration
    8 entries
     n  l   j            E        occ.
     1  0  0.50     -4865.3608   2.0000
     2  0  0.50      -533.1368   2.0000
     2  1  1.50      -440.5031   6.0000
     3  0  0.50       -59.3186   2.0000
     3  1  1.50       -35.7012   6.0000
     3  2  2.50        -1.9157   3.0000
     4  0  0.50        -3.7291   1.0000
     4  3  2.50        -1.3606   0.0000
   Description
     l       E           TYP  RCUT    TYP  RCUT
     1    -35.7012140     23  2.300
     1     -1.3605826     23  2.300
     2     -1.9156996     23  2.500
     2     -0.4063033     23  2.500
     0     -3.7290856     23  2.500
     0     20.4087390     23  2.500
  local pseudopotential read in
  partial core-charges read in
  partial kinetic energy density read in
  atomic valenz-charges read in
  non local Contribution for L=           1  read in
    real space projection operators read in
  non local Contribution for L=           1  read in
    real space projection operators read in
  non local Contribution for L=           2  read in
    real space projection operators read in
  non local Contribution for L=           2  read in
    real space projection operators read in
  non local Contribution for L=           0  read in
    real space projection operators read in
  non local Contribution for L=           0  read in
    real space projection operators read in
    PAW grid and wavefunctions read in

   number of l-projection  operators is LMAX  =           6
   number of lm-projection operators is LMMAX =          18

 POTCAR:    PAW_PBE O 08Apr2002
   VRHFIN =O: s2p4
   LEXCH  = PE
   EATOM  =   432.3788 eV,   31.7789 Ry

   TITEL  = PAW_PBE O 08Apr2002
   LULTRA =        F    use ultrasoft PP ?
   IUNSCR =        1    unscreen: 0-lin 1-nonlin 2-no
   RPACOR =    1.200    partial core radius
   POMASS =   16.000; ZVAL   =    6.000    mass and valenz
   RCORE  =    1.520    outmost cutoff radius
   RWIGS  =    1.550; RWIGS  =    0.820    wigner-seitz radius (au A)
   ENMAX  =  400.000; ENMIN  =  300.000 eV
   ICORE  =        2    local potential
   LCOR   =        T    correct aug charges
   LPAW   =        T    paw PP
   EAUG   =  605.392
   DEXC   =    0.000
   RMAX   =    1.553    core radius for proj-oper
   RAUG   =    1.300    factor for augmentation sphere
   RDEP   =    1.550    radius for radial grids
   RDEPT  =    1.329    core radius for aug-charge

   Atomic configuration
    4 entries
     n  l   j            E        occ.
     1  0  0.50      -514.6923   2.0000
     2  0  0.50       -23.9615   2.0000
     2  1  0.50        -9.0305   4.0000
     3  2  1.50        -9.5241   0.0000
   Description
     l       E           TYP  RCUT    TYP  RCUT
     0    -23.9615318     23  1.200
     0     -9.5240782     23  1.200
     1     -9.0304911     23  1.520
     1      8.1634956     23  1.520
     2     -9.5240782      7  1.500
  local pseudopotential read in
  partial core-charges read in
  partial kinetic energy density read in
  kinetic energy density of atom read in
  atomic valenz-charges read in
  non local Contribution for L=           0  read in
    real space projection operators read in
  non local Contribution for L=           0  read in
    real space projection operators read in
  non local Contribution for L=           1  read in
    real space projection operators read in
  non local Contribution for L=           1  read in
    real space projection operators read in
    PAW grid and wavefunctions read in

   number of l-projection  operators is LMAX  =           4
   number of lm-projection operators is LMMAX =           8

 Optimization of the real space projectors (new method)

 maximal supplied QI-value         = 15.12
 optimisation between [QCUT,QGAM] = [ 10.13, 20.41] = [ 28.73,116.64] Ry
 Optimized for a Real-space Cutoff    1.51 Angstroem

   l    n(q)    QCUT    max X(q) W(low)/X(q) W(high)/X(q)  e(spline)
   1      9    10.129     4.216    0.12E-04    0.72E-04    0.60E-07
   1      9    10.129     5.422    0.84E-04    0.21E-03    0.15E-06
   2      8    10.129    72.084    0.33E-03    0.35E-04    0.17E-06
   2      8    10.129    65.965    0.33E-03    0.37E-04    0.17E-06
   0      9    10.129    41.531    0.17E-03    0.19E-03    0.81E-07
   0      9    10.129    16.290    0.12E-03    0.14E-03    0.64E-07
 Optimization of the real space projectors (new method)

 maximal supplied QI-value         = 24.76
 optimisation between [QCUT,QGAM] = [ 10.15, 20.30] = [ 28.85,115.39] Ry
 Optimized for a Real-space Cutoff    1.38 Angstroem

   l    n(q)    QCUT    max X(q) W(low)/X(q) W(high)/X(q)  e(spline)
   0      8    10.150    20.381    0.22E-03    0.32E-03    0.29E-06
   0      8    10.150    15.268    0.23E-03    0.35E-03    0.30E-06
   1      8    10.150     5.964    0.46E-03    0.53E-03    0.21E-06
   1      8    10.150     5.382    0.38E-03    0.45E-03    0.19E-06
  PAW_PBE Ti_pv 07Sep2000               :
 energy of atom  1       EATOM=-1042.5995
 kinetic energy error for atom=    0.0037 (will be added to EATOM!!)
  PAW_PBE O 08Apr2002                   :
 energy of atom  2       EATOM= -432.3788
 kinetic energy error for atom=    0.1156 (will be added to EATOM!!)


 POSCAR: Ti4 O8
  positions in cartesian coordinates
  No initial velocities read in
 exchange correlation table for  LEXCH =        8
   RHO(1)=    0.500       N(1)  =     2000
   RHO(2)=  100.500       N(2)  =     4000



--------------------------------------------------------------------------------------------------------


 ion  position               nearest neighbor table
   1  0.167  0.167  0.500-  56 1.94  55 1.94  40 1.94  37 1.94 100 2.00  46 2.00  31 3.06  28 3.06
                            11 3.06  10 3.06
   2  0.167  0.500  0.500-  56 1.94  41 1.94  38 1.94  57 1.94 101 2.00  47 2.00  11 3.06  32 3.06
                            29 3.06  12 3.06
   3  0.167  0.833  0.500-  57 1.94  42 1.94  39 1.94  55 1.94 102 2.00  48 2.00  12 3.06  33 3.06
                            30 3.06  10 3.06
   4  0.500  0.167  0.500-  40 1.94  59 1.94  58 1.94  43 1.94 103 2.00  49 2.00  31 3.06  14 3.06
                            13 3.06  34 3.06
   5  0.500  0.482  0.500-  59 1.74  41 1.95  44 1.95 104 2.01  50 2.01  60 2.13  14 2.94  32 3.07
                            35 3.07
   6  0.500  0.833  0.500-  60 1.94  42 1.94  58 1.94  45 1.94 105 2.00  51 2.00  15 3.06  33 3.06
                            13 3.06  36 3.06
   7  0.833  0.167  0.500-  43 1.94  62 1.94  61 1.94  37 1.94 106 2.00  52 2.00  34 3.06  17 3.06
                            16 3.06  28 3.06
   8  0.833  0.500  0.500-  44 1.94  62 1.94  63 1.94  38 1.94 107 2.00  53 2.00  35 3.06  17 3.06
                            29 3.06  18 3.06
   9  0.833  0.833  0.500-  63 1.94  45 1.94  61 1.94  39 1.94 108 2.00  54 2.00  36 3.06  18 3.06
                            30 3.06  16 3.06
  10  0.167  0.000  0.750-  67 1.94  64 1.94  46 1.94  48 1.94  73 2.00  55 2.00  22 3.06  19 3.06
                             1 3.06   3 3.06
  11  0.167  0.333  0.750-  47 1.94  46 1.94  68 1.94  65 1.94  74 2.00  56 2.00   2 3.06  23 3.06
                            20 3.06   1 3.06
  12  0.167  0.667  0.750-  48 1.94  69 1.94  66 1.94  47 1.94  75 2.00  57 2.00   3 3.06  24 3.06
                            21 3.06   2 3.06
  13  0.500  0.000  0.750-  67 1.94  49 1.94  51 1.94  70 1.94  76 2.00  58 2.00  22 3.06   4 3.06
                            25 3.06   6 3.06
  14  0.500  0.333  0.750-  50 1.94  68 1.94  49 1.94  71 1.94  77 2.00  59 2.00   5 2.94  23 3.06
                             4 3.06  26 3.06
  15  0.500  0.667  0.750-  51 1.94  69 1.94  50 1.94  72 1.94  78 2.00  60 2.00   6 3.06  24 3.06
                            27 3.06
  16  0.833  0.000  0.750-  70 1.94  52 1.94  64 1.94  54 1.94  79 2.00  61 2.00  25 3.06   7 3.06
                            19 3.06   9 3.06
  17  0.833  0.333  0.750-  71 1.94  53 1.94  52 1.94  65 1.94  80 2.00  62 2.00  26 3.06   8 3.06
                             7 3.06  20 3.06
  18  0.833  0.667  0.750-  54 1.94  72 1.94  66 1.94  53 1.94  81 2.00  63 2.00  27 3.06   9 3.06
                            21 3.06   8 3.06
  19  0.000  0.000  0.000-  73 1.94  91 1.94  79 1.94  93 1.94  82 2.00  64 2.00  10 3.06  28 3.06
                            16 3.06  30 3.06
  20  0.000  0.333  0.000-  92 1.94  74 1.94  91 1.94  80 1.94  83 2.00  65 2.00  29 3.06  11 3.06
                            28 3.06  17 3.06
  21  0.000  0.667  0.000-  93 1.94  75 1.94  81 1.94  92 1.94  84 2.00  66 2.00  30 3.06  12 3.06
                            18 3.06  29 3.06
  22  0.333  0.000  0.000-  76 1.94  73 1.94  94 1.94  96 1.94  85 2.00  67 2.00  13 3.06  10 3.06
                            31 3.06  33 3.06
  23  0.333  0.333  0.000-  77 1.94  95 1.94  74 1.94  94 1.94  86 2.00  68 2.00  14 3.06  32 3.06
                            11 3.06  31 3.06
  24  0.333  0.667  0.000-  96 1.94  78 1.94  75 1.94  95 1.94  87 2.00  69 2.00  33 3.06  15 3.06
                            12 3.06  32 3.06
  25  0.667  0.000  0.000-  79 1.94  97 1.94  76 1.94  99 1.94  88 2.00  70 2.00  16 3.06  34 3.06
                            13 3.06  36 3.06
  26  0.667  0.333  0.000-  80 1.94  98 1.94  97 1.94  77 1.94  89 2.00  71 2.00  17 3.06  35 3.06
                            34 3.06  14 3.06
  27  0.667  0.667  0.000-  81 1.94  99 1.94  78 1.94  98 1.94  90 2.00  72 2.00  18 3.06  36 3.06
                            15 3.06  35 3.06
  28  0.000  0.167  0.250-  83 1.94  82 1.94 100 1.94 106 1.94  37 2.00  91 2.00   1 3.06  20 3.06
                            19 3.06   7 3.06
  29  0.000  0.500  0.250-  83 1.94 101 1.94  84 1.94 107 1.94  38 2.00  92 2.00  20 3.06   2 3.06
                             8 3.06  21 3.06
  30  0.000  0.833  0.250-  84 1.94 102 1.94  82 1.94 108 1.94  39 2.00  93 2.00  21 3.06   3 3.06
                             9 3.06  19 3.06
  31  0.333  0.167  0.250- 103 1.94  86 1.94  85 1.94 100 1.94  40 2.00  94 2.00   4 3.06   1 3.06
                            23 3.06  22 3.06
  32  0.333  0.500  0.250-  86 1.94 104 1.94 101 1.94  87 1.94  41 2.00  95 2.00  23 3.06   2 3.06
                            24 3.06   5 3.07
  33  0.333  0.833  0.250-  87 1.94 105 1.94 102 1.94  85 1.94  42 2.00  96 2.00  24 3.06   6 3.06
                             3 3.06  22 3.06
  34  0.667  0.167  0.250- 106 1.94  89 1.94  88 1.94 103 1.94  43 2.00  97 2.00   7 3.06  26 3.06
                            25 3.06   4 3.06
  35  0.667  0.500  0.250- 107 1.94  89 1.94  90 1.94 104 1.94  44 2.00  98 2.00   8 3.06  26 3.06
                            27 3.06   5 3.07
  36  0.667  0.833  0.250-  90 1.94 108 1.94  88 1.94 105 1.94  45 2.00  99 2.00   9 3.06  27 3.06
                            25 3.06   6 3.06
  37  0.000  0.167  0.458-   1 1.94   7 1.94  28 2.00
  38  0.000  0.500  0.458-   2 1.94   8 1.94  29 2.00
  39  0.000  0.833  0.458-   3 1.94   9 1.94  30 2.00
  40  0.333  0.167  0.458-   4 1.94   1 1.94  31 2.00
  41  0.333  0.500  0.458-   2 1.94   5 1.95  32 2.00
  42  0.333  0.833  0.458-   6 1.94   3 1.94  33 2.00
  43  0.667  0.167  0.458-   7 1.94   4 1.94  34 2.00
  44  0.667  0.500  0.458-   8 1.94   5 1.95  35 2.00
  45  0.667  0.833  0.458-   9 1.94   6 1.94  36 2.00
  46  0.167  0.167  0.708-  11 1.94  10 1.94   1 2.00
  47  0.167  0.500  0.708-  11 1.94  12 1.94   2 2.00
  48  0.167  0.833  0.708-  12 1.94  10 1.94   3 2.00
  49  0.500  0.167  0.708-  14 1.94  13 1.94   4 2.00
  50  0.500  0.500  0.708-  14 1.94  15 1.94   5 2.01
  51  0.500  0.833  0.708-  15 1.94  13 1.94   6 2.00
  52  0.833  0.167  0.708-  17 1.94  16 1.94   7 2.00
  53  0.833  0.500  0.708-  17 1.94  18 1.94   8 2.00
  54  0.833  0.833  0.708-  18 1.94  16 1.94   9 2.00
  55  0.167  0.000  0.542-   1 1.94   3 1.94  10 2.00
  56  0.167  0.333  0.542-   2 1.94   1 1.94  11 2.00
  57  0.167  0.667  0.542-   3 1.94   2 1.94  12 2.00
  58  0.500  0.000  0.542-   4 1.94   6 1.94  13 2.00
  59  0.500  0.333  0.542-   5 1.74   4 1.94  14 2.00
  60  0.500  0.667  0.542-   6 1.94  15 2.00   5 2.13
  61  0.833  0.000  0.542-   7 1.94   9 1.94  16 2.00
  62  0.833  0.333  0.542-   8 1.94   7 1.94  17 2.00
  63  0.833  0.667  0.542-   9 1.94   8 1.94  18 2.00
  64  0.000  0.000  0.792-  10 1.94  16 1.94  19 2.00
  65  0.000  0.333  0.792-  11 1.94  17 1.94  20 2.00
  66  0.000  0.667  0.792-  12 1.94  18 1.94  21 2.00
  67  0.333  0.000  0.792-  13 1.94  10 1.94  22 2.00
  68  0.333  0.333  0.792-  14 1.94  11 1.94  23 2.00
  69  0.333  0.667  0.792-  15 1.94  12 1.94  24 2.00
  70  0.667  0.000  0.792-  16 1.94  13 1.94  25 2.00
  71  0.667  0.333  0.792-  17 1.94  14 1.94  26 2.00
  72  0.667  0.667  0.792-  18 1.94  15 1.94  27 2.00
  73  0.167  0.000  0.958-  22 1.94  19 1.94  10 2.00
  74  0.167  0.333  0.958-  23 1.94  20 1.94  11 2.00
  75  0.167  0.667  0.958-  24 1.94  21 1.94  12 2.00
  76  0.500  0.000  0.958-  22 1.94  25 1.94  13 2.00
  77  0.500  0.333  0.958-  23 1.94  26 1.94  14 2.00
  78  0.500  0.667  0.958-  24 1.94  27 1.94  15 2.00
  79  0.833  0.000  0.958-  25 1.94  19 1.94  16 2.00
  80  0.833  0.333  0.958-  26 1.94  20 1.94  17 2.00
  81  0.833  0.667  0.958-  27 1.94  21 1.94  18 2.00
  82  0.000  0.000  0.208-  28 1.94  30 1.94  19 2.00
  83  0.000  0.333  0.208-  29 1.94  28 1.94  20 2.00
  84  0.000  0.667  0.208-  30 1.94  29 1.94  21 2.00
  85  0.333  0.000  0.208-  31 1.94  33 1.94  22 2.00
  86  0.333  0.333  0.208-  32 1.94  31 1.94  23 2.00
  87  0.333  0.667  0.208-  33 1.94  32 1.94  24 2.00
  88  0.667  0.000  0.208-  34 1.94  36 1.94  25 2.00
  89  0.667  0.333  0.208-  35 1.94  34 1.94  26 2.00
  90  0.667  0.667  0.208-  36 1.94  35 1.94  27 2.00
  91  0.000  0.167  0.042-  20 1.94  19 1.94  28 2.00
  92  0.000  0.500  0.042-  20 1.94  21 1.94  29 2.00
  93  0.000  0.833  0.042-  21 1.94  19 1.94  30 2.00
  94  0.333  0.167  0.042-  23 1.94  22 1.94  31 2.00
  95  0.333  0.500  0.042-  23 1.94  24 1.94  32 2.00
  96  0.333  0.833  0.042-  24 1.94  22 1.94  33 2.00
  97  0.667  0.167  0.042-  26 1.94  25 1.94  34 2.00
  98  0.667  0.500  0.042-  26 1.94  27 1.94  35 2.00
  99  0.667  0.833  0.042-  27 1.94  25 1.94  36 2.00
 100  0.167  0.167  0.292-  31 1.94  28 1.94   1 2.00
 101  0.167  0.500  0.292-  32 1.94  29 1.94   2 2.00
 102  0.167  0.833  0.292-  33 1.94  30 1.94   3 2.00
 103  0.500  0.167  0.292-  31 1.94  34 1.94   4 2.00
 104  0.500  0.500  0.292-  32 1.94  35 1.94   5 2.01
 105  0.500  0.833  0.292-  33 1.94  36 1.94   6 2.00
 106  0.833  0.167  0.292-  34 1.94  28 1.94   7 2.00
 107  0.833  0.500  0.292-  35 1.94  29 1.94   8 2.00
 108  0.833  0.833  0.292-  36 1.94  30 1.94   9 2.00


IMPORTANT INFORMATION: All symmetrisations will be switched off!
NOSYMM: (Re-)initialisation of all symmetry stuff for point group C_1.


----------------------------------------------------------------------------------------

                                     Primitive cell

  volume of cell :    1243.1447

  direct lattice vectors                    reciprocal lattice vectors
    11.376843452  0.000000000  0.000000000     0.087897843  0.000000000  0.000000000
     0.000000000 11.376843452  0.000000000     0.000000000  0.087897843  0.000000000
     0.000000000  0.000000000  9.604574204     0.000000000  0.000000000  0.104117057

  length of vectors
    11.376843452 11.376843452  9.604574204     0.087897843  0.087897843  0.104117057

  position of ions in fractional coordinates (direct lattice)
     0.166666672  0.166666672  0.500000000
     0.166666672  0.500000000  0.500000000
     0.166666672  0.833333313  0.500000000
     0.500000000  0.166666672  0.500000000
     0.500000000  0.482420431  0.500000000
     0.500000000  0.833333313  0.500000000
     0.833333313  0.166666672  0.500000000
     0.833333313  0.500000000  0.500000000
     0.833333313  0.833333313  0.500000000
     0.166666672  0.000000000  0.750000000
     0.166666672  0.333333343  0.750000000
     0.166666672  0.666666687  0.750000000
     0.500000000  0.000000000  0.750000000
     0.500000000  0.333333343  0.750000000
     0.500000000  0.666666687  0.750000000
     0.833333313  0.000000000  0.750000000
     0.833333313  0.333333343  0.750000000
     0.833333313  0.666666687  0.750000000
     0.000000000  0.000000000  0.000000000
     0.000000000  0.333333343  0.000000000
     0.000000000  0.666666687  0.000000000
     0.333333343  0.000000000  0.000000000
     0.333333343  0.333333343  0.000000000
     0.333333343  0.666666687  0.000000000
     0.666666687  0.000000000  0.000000000
     0.666666687  0.333333343  0.000000000
     0.666666687  0.666666687  0.000000000
     0.000000000  0.166666672  0.250000000
     0.000000000  0.500000000  0.250000000
     0.000000000  0.833333313  0.250000000
     0.333333343  0.166666672  0.250000000
     0.333333343  0.500000000  0.250000000
     0.333333343  0.833333313  0.250000000
     0.666666687  0.166666672  0.250000000
     0.666666687  0.500000000  0.250000000
     0.666666687  0.833333313  0.250000000
     0.000000000  0.166666672  0.457898587
     0.000000000  0.500000000  0.457898587
     0.000000000  0.833333313  0.457898587
     0.333333343  0.166666672  0.457898587
     0.333333343  0.500000000  0.457898587
     0.333333343  0.833333313  0.457898587
     0.666666687  0.166666672  0.457898587
     0.666666687  0.500000000  0.457898587
     0.666666687  0.833333313  0.457898587
     0.166666672  0.166666672  0.707898617
     0.166666672  0.500000000  0.707898617
     0.166666672  0.833333313  0.707898617
     0.500000000  0.166666672  0.707898617
     0.500000000  0.500000000  0.707898617
     0.500000000  0.833333313  0.707898617
     0.833333313  0.166666672  0.707898617
     0.833333313  0.500000000  0.707898617
     0.833333313  0.833333313  0.707898617
     0.166666672  0.000000000  0.542101383
     0.166666672  0.333333343  0.542101383
     0.166666672  0.666666687  0.542101383
     0.500000000  0.000000000  0.542101383
     0.500000000  0.333333343  0.542101383
     0.500000000  0.666666687  0.542101383
     0.833333313  0.000000000  0.542101383
     0.833333313  0.333333343  0.542101383
     0.833333313  0.666666687  0.542101383
     0.000000000  0.000000000  0.792101383
     0.000000000  0.333333343  0.792101383
     0.000000000  0.666666687  0.792101383
     0.333333343  0.000000000  0.792101383
     0.333333343  0.333333343  0.792101383
     0.333333343  0.666666687  0.792101383
     0.666666687  0.000000000  0.792101383
     0.666666687  0.333333343  0.792101383
     0.666666687  0.666666687  0.792101383
     0.166666672  0.000000000  0.957898617
     0.166666672  0.333333343  0.957898617
     0.166666672  0.666666687  0.957898617
     0.500000000  0.000000000  0.957898617
     0.500000000  0.333333343  0.957898617
     0.500000000  0.666666687  0.957898617
     0.833333313  0.000000000  0.957898617
     0.833333313  0.333333343  0.957898617
     0.833333313  0.666666687  0.957898617
     0.000000000  0.000000000  0.207898602
     0.000000000  0.333333343  0.207898602
     0.000000000  0.666666687  0.207898602
     0.333333343  0.000000000  0.207898602
     0.333333343  0.333333343  0.207898602
     0.333333343  0.666666687  0.207898602
     0.666666687  0.000000000  0.207898602
     0.666666687  0.333333343  0.207898602
     0.666666687  0.666666687  0.207898602
     0.000000000  0.166666672  0.042101406
     0.000000000  0.500000000  0.042101406
     0.000000000  0.833333313  0.042101406
     0.333333343  0.166666672  0.042101406
     0.333333343  0.500000000  0.042101406
     0.333333343  0.833333313  0.042101406
     0.666666687  0.166666672  0.042101406
     0.666666687  0.500000000  0.042101406
     0.666666687  0.833333313  0.042101406
     0.166666672  0.166666672  0.292101413
     0.166666672  0.500000000  0.292101413
     0.166666672  0.833333313  0.292101413
     0.500000000  0.166666672  0.292101413
     0.500000000  0.500000000  0.292101413
     0.500000000  0.833333313  0.292101413
     0.833333313  0.166666672  0.292101413
     0.833333313  0.500000000  0.292101413
     0.833333313  0.833333313  0.292101413

  ion indices of the primitive-cell ions
   primitive index   ion index
                 1           1
                 2           2
                 3           3
                 4           4
                 5           5
                 6           6
                 7           7
                 8           8
                 9           9
                10          10
                11          11
                12          12
                13          13
                14          14
                15          15
                16          16
                17          17
                18          18
                19          19
                20          20
                21          21
                22          22
                23          23
                24          24
                25          25
                26          26
                27          27
                28          28
                29          29
                30          30
                31          31
                32          32
                33          33
                34          34
                35          35
                36          36
                37          37
                38          38
                39          39
                40          40
                41          41
                42          42
                43          43
                44          44
                45          45
                46          46
                47          47
                48          48
                49          49
                50          50
                51          51
                52          52
                53          53
                54          54
                55          55
                56          56
                57          57
                58          58
                59          59
                60          60
                61          61
                62          62
                63          63
                64          64
                65          65
                66          66
                67          67
                68          68
                69          69
                70          70
                71          71
                72          72
                73          73
                74          74
                75          75
                76          76
                77          77
                78          78
                79          79
                80          80
                81          81
                82          82
                83          83
                84          84
                85          85
                86          86
                87          87
                88          88
                89          89
                90          90
                91          91
                92          92
                93          93
                94          94
                95          95
                96          96
                97          97
                98          98
                99          99
               100         100
               101         101
               102         102
               103         103
               104         104
               105         105
               106         106
               107         107
               108         108

----------------------------------------------------------------------------------------



 KPOINTS: K-Points

Automatic generation of k-mesh.
 Grid dimensions read from file:
 generate k-points for:    2    2    2

 Generating k-lattice:

  Cartesian coordinates                     Fractional coordinates (reciprocal lattice)
     0.043948922  0.000000000  0.000000000     0.500000000  0.000000000  0.000000000
     0.000000000  0.043948922  0.000000000     0.000000000  0.500000000  0.000000000
     0.000000000  0.000000000  0.052058529     0.000000000  0.000000000  0.500000000

  Length of vectors
     0.043948922  0.043948922  0.052058529

  Shift w.r.t. Gamma in fractional coordinates (k-lattice)
     0.500000000  0.500000000  0.500000000


 Subroutine IBZKPT returns following result:
 ===========================================

 Found      4 irreducible k-points:

 Following reciprocal coordinates:
            Coordinates               Weight
  0.250000  0.250000  0.250000      2.000000
 -0.250000  0.250000  0.250000      2.000000
 -0.250000 -0.250000  0.250000      2.000000
  0.250000 -0.250000  0.250000      2.000000

 Following cartesian coordinates:
            Coordinates               Weight
  0.021974  0.021974  0.026029      2.000000
 -0.021974  0.021974  0.026029      2.000000
 -0.021974 -0.021974  0.026029      2.000000
  0.021974 -0.021974  0.026029      2.000000


 Subroutine IBZKPT_HF returns following result:
 ==============================================

 Found      8 k-points in 1st BZ
 the following      8 k-points will be used (e.g. in the exchange kernel)
 Following reciprocal coordinates:   # in IRBZ
  0.250000  0.250000  0.250000    0.12500000   1 t-inv F
 -0.250000  0.250000  0.250000    0.12500000   2 t-inv F
 -0.250000 -0.250000  0.250000    0.12500000   3 t-inv F
  0.250000 -0.250000  0.250000    0.12500000   4 t-inv F
 -0.250000 -0.250000 -0.250000    0.12500000   1 t-inv T
  0.250000 -0.250000 -0.250000    0.12500000   2 t-inv T
  0.250000  0.250000 -0.250000    0.12500000   3 t-inv T
 -0.250000  0.250000 -0.250000    0.12500000   4 t-inv T


--------------------------------------------------------------------------------------------------------




 Dimension of arrays:
   k-points           NKPTS =      4   k-points in BZ     NKDIM =      4   number of bands    NBANDS=    476
   number of dos      NEDOS =    301   number of ions     NIONS =    108
   non local maximal  LDIM  =      6   non local SUM 2l+1 LMDIM =     18
   total plane-waves  NPLWV = 150528
   max r-space proj   IRMAX =   1791   max aug-charges    IRDMAX=   4900
   dimension x,y,z NGX =    56 NGY =   56 NGZ =   48
   dimension x,y,z NGXF=   112 NGYF=  112 NGZF=   96
   support grid    NGXF=   112 NGYF=  112 NGZF=   96
   ions per type =              36  72
   NGX,Y,Z   is equivalent  to a cutoff of   8.18,  8.18,  8.31 a.u.
   NGXF,Y,Z  is equivalent  to a cutoff of  16.37, 16.37, 16.62 a.u.

 SYSTEM =  unknown system
 POSCAR =  Ti4 O8

 Startparameter for this run:
   NWRITE =      2    write-flag & timer
   PREC   = normal    normal or accurate (medium, high low for compatibility)
   ISTART =      0    job   : 0-new  1-cont  2-samecut
   ICHARG =      2    charge: 1-file 2-atom 10-const
   ISPIN  =      1    spin polarized calculation?
   LNONCOLLINEAR =      F non collinear calculations
   LSORBIT =      F    spin-orbit coupling
   INIWAV =      1    electr: 0-lowe 1-rand  2-diag
   LASPH  =      F    aspherical Exc in radial PAW
 Electronic Relaxation 1
   ENCUT  =  400.0 eV  29.40 Ry    5.42 a.u.  18.55 18.55 15.66*2*pi/ulx,y,z
   ENINI  =  400.0     initial cutoff
   ENAUG  =  605.4 eV  augmentation charge cutoff
   NELM   =     80;   NELMIN=  4; NELMDL= -5     # of ELM steps
   EDIFF  = 0.1E-06   stopping-criterion for ELM
   LREAL  =      T    real-space projection
   NLSPLINE    = F    spline interpolate recip. space projectors
   LCOMPAT=      F    compatible to vasp.4.4
   GGA_COMPAT  = T    GGA compatible to vasp.4.4-vasp.4.6
   LMAXPAW     = -100 max onsite density
   LMAXMIX     =    2 max onsite mixed and CHGCAR
   VOSKOWN=      0    Vosko Wilk Nusair interpolation
   ROPT   =   -0.00050  -0.00050
 Ionic relaxation
   EDIFFG = 0.1E-05   stopping-criterion for IOM
   NSW    =      0    number of steps for IOM
   NBLOCK =      1;   KBLOCK =      1    inner block; outer block
   IBRION =     -1    ionic relax: 0-MD 1-quasi-New 2-CG
   NFREE  =      0    steps in history (QN), initial steepest desc. (CG)
   ISIF   =      2    stress and relaxation
   IWAVPR =     10    prediction:  0-non 1-charg 2-wave 3-comb
   ISYM   =      0    0-nonsym 1-usesym 2-fastsym
   LCORR  =      T    Harris-Foulkes like correction to forces

   POTIM  = 0.5000    time-step for ionic-motion
   TEIN   =    0.0    initial temperature
   TEBEG  =    0.0;   TEEND  =   0.0 temperature during run
   SMASS  =  -3.00    Nose mass-parameter (am)
   estimated Nose-frequenzy (Omega)   =  0.10E-29 period in steps = 0.13E+47 mass=  -0.296E-26a.u.
   SCALEE = 1.0000    scale energy and forces
   NPACO  =    256;   APACO  = 10.0  distance and # of slots for P.C.
   PSTRESS=    0.0 pullay stress

  Mass of Ions in am
   POMASS =  47.88 16.00
  Ionic Valenz
   ZVAL   =  10.00  6.00
  Atomic Wigner-Seitz radii
   RWIGS  =  -1.00 -1.00
  virtual crystal weights
   VCA    =   1.00  1.00
   NELECT =     792.0000    total number of electrons
   NUPDOWN=      -1.0000    fix difference up-down

 DOS related values:
   EMIN   =  10.00;   EMAX   =-10.00  energy-range for DOS
   EFERMI =   0.00
   ISMEAR =     0;   SIGMA  =   0.10  broadening in eV -4-tet -1-fermi 0-gaus

 Electronic relaxation 2 (details)
   IALGO  =     38    algorithm
   LDIAG  =      T    sub-space diagonalisation (order eigenvalues)
   LSUBROT=      F    optimize rotation matrix (better conditioning)
   TURBO    =      0    0=normal 1=particle mesh
   IRESTART =      0    0=no restart 2=restart with 2 vectors
   NREBOOT  =      0    no. of reboots
   NMIN     =      0    reboot dimension
   EREF     =   0.00    reference energy to select bands
   IMIX   =      4    mixing-type and parameters
     AMIX     =   0.40;   BMIX     =  1.00
     AMIX_MAG =   1.60;   BMIX_MAG =  1.00
     AMIN     =   0.10
     WC   =   100.;   INIMIX=   1;  MIXPRE=   1;  MAXMIX= -45

 Intra band minimization:
   WEIMIN = 0.0000     energy-eigenvalue tresh-hold
   EBREAK =  0.53E-10  absolut break condition
   DEPER  =   0.30     relativ break condition

   TIME   =   0.40     timestep for ELM

  volume/ion in A,a.u.               =      11.51        77.68
  Fermi-wavevector in a.u.,A,eV,Ry     =   1.408670  2.662001 26.998745  1.984352
  Thomas-Fermi vector in A             =   2.530804

 Write flags
   LWAVE        =      F    write WAVECAR
   LDOWNSAMPLE  =      F    k-point downsampling of WAVECAR
   LCHARG       =      F    write CHGCAR
   LVTOT        =      F    write LOCPOT, total local potential
   LVHAR        =      F    write LOCPOT, Hartree potential only
   LELF         =      F    write electronic localiz. function (ELF)
   LORBIT       =      0    0 simple, 1 ext, 2 COOP (PROOUT), +10 PAW based schemes


 Dipole corrections
   LMONO  =      F    monopole corrections only (constant potential shift)
   LDIPOL =      F    correct potential (dipole corrections)
   IDIPOL =      0    1-x, 2-y, 3-z, 4-all directions
   EPSILON=  1.0000000 bulk dielectric constant

 Exchange correlation treatment:
   GGA     =    --    GGA type
   LEXCH   =     8    internal setting for exchange type
   LIBXC   =     F    Libxc
   VOSKOWN =     0    Vosko Wilk Nusair interpolation
   LHFCALC =     F    Hartree Fock is set to
   LHFONE  =     F    Hartree Fock one center treatment
   AEXX    =    0.0000 exact exchange contribution

 Linear response parameters
   LEPSILON=     T    determine dielectric tensor
   LRPA    =     F    only Hartree local field effects (RPA)
   LNABLA  =     F    use nabla operator in PAW spheres
   LVEL    =     F    velocity operator in full k-point grid
   CSHIFT  =0.1000    complex shift for real part using Kramers Kronig
   OMEGAMAX=  -1.0    maximum frequency
   DEG_THRESHOLD= 0.2000000E-02 threshold for treating states as degnerate
   RTIME   =   -0.100 relaxation time in fs
  (WPLASMAI=    0.000 imaginary part of plasma frequency in eV, 0.658/RTIME)
   DFIELD  = 0.0000000 0.0000000 0.0000000 field for delta impulse in time

  Optional k-point grid parameters
   LKPOINTS_OPT  =     F    use optional k-point grid
   KPOINTS_OPT_MODE=     1    mode for optional k-point grid

 Orbital magnetization related:
   ORBITALMAG=     F  switch on orbital magnetization
   LCHIMAG   =     F  perturbation theory with respect to B field
   DQ        =  0.001000  dq finite difference perturbation B field
   LLRAUG    =     F  two centre corrections for induced B field

 PEAD related settings:
   LPEAD      =     T    switch on PEAD
   IPEAD      =     4    finite difference order for dpsi/dk
   LCALCPOL   =     F    calculate macroscopic polarization
   LCALCEPS   =     F    calculate dielectric tensor
   EFIELD_PEAD=    0.0000    0.0000    0.0000
   SKIP_EDOTP =     F
   LRPA       =     F
   SKIP_SCF   =     F


--------------------------------------------------------------------------------------------------------


 Static calculation
 charge density and potential will be updated during run
 non-spin polarized calculation
 Variant of blocked Davidson
 Davidson routine will perform the subspace rotation
 perform sub-space diagonalisation
    after iterative eigenvector-optimisation
 modified Broyden-mixing scheme, WC =      100.0
 initial mixing is a Kerker type mixing with AMIX =  0.4000 and BMIX =      1.0000
 Hartree-type preconditioning will be used
 using additional bands           80
 real space projection scheme for non local part
 use partial core corrections
 calculate Harris-corrections to forces
   (improved forces if not selfconsistent)
 use gradient corrections
 use of overlap-Matrix (Vanderbilt PP)
 Gauss-broadening in eV      SIGMA  =   0.10


--------------------------------------------------------------------------------------------------------


  energy-cutoff  :      400.00
  volume of cell :     1243.14
      direct lattice vectors                 reciprocal lattice vectors
    11.376843452  0.000000000  0.000000000     0.087897843  0.000000000  0.000000000
     0.000000000 11.376843452  0.000000000     0.000000000  0.087897843  0.000000000
     0.000000000  0.000000000  9.604574204     0.000000000  0.000000000  0.104117057

  length of vectors
    11.376843452 11.376843452  9.604574204     0.087897843  0.087897843  0.104117057



 k-points in units of 2pi/SCALE and weight: K-Points
   0.02197446  0.02197446  0.02602926       0.250
  -0.02197446  0.02197446  0.02602926       0.250
  -0.02197446 -0.02197446  0.02602926       0.250
   0.02197446 -0.02197446  0.02602926       0.250

 k-points in reciprocal lattice and weights: K-Points
   0.25000000  0.25000000  0.25000000       0.250
  -0.25000000  0.25000000  0.25000000       0.250
  -0.25000000 -0.25000000  0.25000000       0.250
   0.25000000 -0.25000000  0.25000000       0.250

 position of ions in fractional coordinates (direct lattice)
   0.16666667  0.16666667  0.50000000
   0.16666667  0.50000000  0.50000000
   0.16666667  0.83333331  0.50000000
   0.50000000  0.16666667  0.50000000
   0.50000000  0.48242043  0.50000000
   0.50000000  0.83333331  0.50000000
   0.83333331  0.16666667  0.50000000
   0.83333331  0.50000000  0.50000000
   0.83333331  0.83333331  0.50000000
   0.16666667  0.00000000  0.75000000
   0.16666667  0.33333334  0.75000000
   0.16666667  0.66666669  0.75000000
   0.50000000  0.00000000  0.75000000
   0.50000000  0.33333334  0.75000000
   0.50000000  0.66666669  0.75000000
   0.83333331  0.00000000  0.75000000
   0.83333331  0.33333334  0.75000000
   0.83333331  0.66666669  0.75000000
   0.00000000  0.00000000  0.00000000
   0.00000000  0.33333334  0.00000000
   0.00000000  0.66666669  0.00000000
   0.33333334  0.00000000  0.00000000
   0.33333334  0.33333334  0.00000000
   0.33333334  0.66666669  0.00000000
   0.66666669  0.00000000  0.00000000
   0.66666669  0.33333334  0.00000000
   0.66666669  0.66666669  0.00000000
   0.00000000  0.16666667  0.25000000
   0.00000000  0.50000000  0.25000000
   0.00000000  0.83333331  0.25000000
   0.33333334  0.16666667  0.25000000
   0.33333334  0.50000000  0.25000000
   0.33333334  0.83333331  0.25000000
   0.66666669  0.16666667  0.25000000
   0.66666669  0.50000000  0.25000000
   0.66666669  0.83333331  0.25000000
   0.00000000  0.16666667  0.45789859
   0.00000000  0.50000000  0.45789859
   0.00000000  0.83333331  0.45789859
   0.33333334  0.16666667  0.45789859
   0.33333334  0.50000000  0.45789859
   0.33333334  0.83333331  0.45789859
   0.66666669  0.16666667  0.45789859
   0.66666669  0.50000000  0.45789859
   0.66666669  0.83333331  0.45789859
   0.16666667  0.16666667  0.70789862
   0.16666667  0.50000000  0.70789862
   0.16666667  0.83333331  0.70789862
   0.50000000  0.16666667  0.70789862
   0.50000000  0.50000000  0.70789862
   0.50000000  0.83333331  0.70789862
   0.83333331  0.16666667  0.70789862
   0.83333331  0.50000000  0.70789862
   0.83333331  0.83333331  0.70789862
   0.16666667  0.00000000  0.54210138
   0.16666667  0.33333334  0.54210138
   0.16666667  0.66666669  0.54210138
   0.50000000  0.00000000  0.54210138
   0.50000000  0.33333334  0.54210138
   0.50000000  0.66666669  0.54210138
   0.83333331  0.00000000  0.54210138
   0.83333331  0.33333334  0.54210138
   0.83333331  0.66666669  0.54210138
   0.00000000  0.00000000  0.79210138
   0.00000000  0.33333334  0.79210138
   0.00000000  0.66666669  0.79210138
   0.33333334  0.00000000  0.79210138
   0.33333334  0.33333334  0.79210138
   0.33333334  0.66666669  0.79210138
   0.66666669  0.00000000  0.79210138
   0.66666669  0.33333334  0.79210138
   0.66666669  0.66666669  0.79210138
   0.16666667  0.00000000  0.95789862
   0.16666667  0.33333334  0.95789862
   0.16666667  0.66666669  0.95789862
   0.50000000  0.00000000  0.95789862
   0.50000000  0.33333334  0.95789862
   0.50000000  0.66666669  0.95789862
   0.83333331  0.00000000  0.95789862
   0.83333331  0.33333334  0.95789862
   0.83333331  0.66666669  0.95789862
   0.00000000  0.00000000  0.20789860
   0.00000000  0.33333334  0.20789860
   0.00000000  0.66666669  0.20789860
   0.33333334  0.00000000  0.20789860
   0.33333334  0.33333334  0.20789860
   0.33333334  0.66666669  0.20789860
   0.66666669  0.00000000  0.20789860
   0.66666669  0.33333334  0.20789860
   0.66666669  0.66666669  0.20789860
   0.00000000  0.16666667  0.04210141
   0.00000000  0.50000000  0.04210141
   0.00000000  0.83333331  0.04210141
   0.33333334  0.16666667  0.04210141
   0.33333334  0.50000000  0.04210141
   0.33333334  0.83333331  0.04210141
   0.66666669  0.16666667  0.04210141
   0.66666669  0.50000000  0.04210141
   0.66666669  0.83333331  0.04210141
   0.16666667  0.16666667  0.29210141
   0.16666667  0.50000000  0.29210141
   0.16666667  0.83333331  0.29210141
   0.50000000  0.16666667  0.29210141
   0.50000000  0.50000000  0.29210141
   0.50000000  0.83333331  0.29210141
   0.83333331  0.16666667  0.29210141
   0.83333331  0.50000000  0.29210141
   0.83333331  0.83333331  0.29210141

 position of ions in cartesian coordinates  (Angst):
   1.89614063  1.89614063  4.80228710
   1.89614063  5.68842173  4.80228710
   1.89614063  9.48070265  4.80228710
   5.68842173  1.89614063  4.80228710
   5.68842173  5.48842173  4.80228710
   5.68842173  9.48070265  4.80228710
   9.48070265  1.89614063  4.80228710
   9.48070265  5.68842173  4.80228710
   9.48070265  9.48070265  4.80228710
   1.89614063  0.00000000  7.20343065
   1.89614063  3.79228126  7.20343065
   1.89614063  7.58456253  7.20343065
   5.68842173  0.00000000  7.20343065
   5.68842173  3.79228126  7.20343065
   5.68842173  7.58456253  7.20343065
   9.48070265  0.00000000  7.20343065
   9.48070265  3.79228126  7.20343065
   9.48070265  7.58456253  7.20343065
   0.00000000  0.00000000  0.00000000
   0.00000000  3.79228126  0.00000000
   0.00000000  7.58456253  0.00000000
   3.79228126  0.00000000  0.00000000
   3.79228126  3.79228126  0.00000000
   3.79228126  7.58456253  0.00000000
   7.58456253  0.00000000  0.00000000
   7.58456253  3.79228126  0.00000000
   7.58456253  7.58456253  0.00000000
   0.00000000  1.89614063  2.40114355
   0.00000000  5.68842173  2.40114355
   0.00000000  9.48070265  2.40114355
   3.79228126  1.89614063  2.40114355
   3.79228126  5.68842173  2.40114355
   3.79228126  9.48070265  2.40114355
   7.58456253  1.89614063  2.40114355
   7.58456253  5.68842173  2.40114355
   7.58456253  9.48070265  2.40114355
   0.00000000  1.89614063  4.39792096
   0.00000000  5.68842173  4.39792096
   0.00000000  9.48070265  4.39792096
   3.79228126  1.89614063  4.39792096
   3.79228126  5.68842173  4.39792096
   3.79228126  9.48070265  4.39792096
   7.58456253  1.89614063  4.39792096
   7.58456253  5.68842173  4.39792096
   7.58456253  9.48070265  4.39792096
   1.89614063  1.89614063  6.79906479
   1.89614063  5.68842173  6.79906479
   1.89614063  9.48070265  6.79906479
   5.68842173  1.89614063  6.79906479
   5.68842173  5.68842173  6.79906479
   5.68842173  9.48070265  6.79906479
   9.48070265  1.89614063  6.79906479
   9.48070265  5.68842173  6.79906479
   9.48070265  9.48070265  6.79906479
   1.89614063  0.00000000  5.20665296
   1.89614063  3.79228126  5.20665296
   1.89614063  7.58456253  5.20665296
   5.68842173  0.00000000  5.20665296
   5.68842173  3.79228126  5.20665296
   5.68842173  7.58456253  5.20665296
   9.48070265  0.00000000  5.20665296
   9.48070265  3.79228126  5.20665296
   9.48070265  7.58456253  5.20665296
   0.00000000  0.00000000  7.60779651
   0.00000000  3.79228126  7.60779651
   0.00000000  7.58456253  7.60779651
   3.79228126  0.00000000  7.60779651
   3.79228126  3.79228126  7.60779651
   3.79228126  7.58456253  7.60779651
   7.58456253  0.00000000  7.60779651
   7.58456253  3.79228126  7.60779651
   7.58456253  7.58456253  7.60779651
   1.89614063  0.00000000  9.20020834
   1.89614063  3.79228126  9.20020834
   1.89614063  7.58456253  9.20020834
   5.68842173  0.00000000  9.20020834
   5.68842173  3.79228126  9.20020834
   5.68842173  7.58456253  9.20020834
   9.48070265  0.00000000  9.20020834
   9.48070265  3.79228126  9.20020834
   9.48070265  7.58456253  9.20020834
   0.00000000  0.00000000  1.99677755
   0.00000000  3.79228126  1.99677755
   0.00000000  7.58456253  1.99677755
   3.79228126  0.00000000  1.99677755
   3.79228126  3.79228126  1.99677755
   3.79228126  7.58456253  1.99677755
   7.58456253  0.00000000  1.99677755
   7.58456253  3.79228126  1.99677755
   7.58456253  7.58456253  1.99677755
   0.00000000  1.89614063  0.40436607
   0.00000000  5.68842173  0.40436607
   0.00000000  9.48070265  0.40436607
   3.79228126  1.89614063  0.40436607
   3.79228126  5.68842173  0.40436607
   3.79228126  9.48070265  0.40436607
   7.58456253  1.89614063  0.40436607
   7.58456253  5.68842173  0.40436607
   7.58456253  9.48070265  0.40436607
   1.89614063  1.89614063  2.80550970
   1.89614063  5.68842173  2.80550970
   1.89614063  9.48070265  2.80550970
   5.68842173  1.89614063  2.80550970
   5.68842173  5.68842173  2.80550970
   5.68842173  9.48070265  2.80550970
   9.48070265  1.89614063  2.80550970
   9.48070265  5.68842173  2.80550970
   9.48070265  9.48070265  2.80550970



--------------------------------------------------------------------------------------------------------


 k-point   1 :   0.2500 0.2500 0.2500  plane waves:   22590
 k-point   2 :  -0.2500 0.2500 0.2500  plane waves:   22590
 k-point   3 :  -0.2500-0.2500 0.2500  plane waves:   22590
 k-point   4 :   0.2500-0.2500 0.2500  plane waves:   22590

 maximum and minimum number of plane-waves per node :     22590    22590

 maximum number of plane-waves:     22590
 maximum index in each direction:
   IXMAX=   18   IYMAX=   18   IZMAX=   15
   IXMIN=  -18   IYMIN=  -18   IZMIN=  -15


 serial   3D FFT for wavefunctions
 parallel 3D FFT for charge:
    minimum data exchange during FFTs selected (reduces bandwidth)


 total amount of memory used by VASP MPI-rank0   266724. kBytes
=======================================================================

   base      :      30000. kBytes
   nonlr-proj:      19555. kBytes
   fftplans  :      10927. kBytes
   grid      :      23181. kBytes
   one-center:       1679. kBytes
   wavefun   :     181382. kBytes

     INWAV:  cpu time      0.0001: real time      0.0001
 Broyden mixing: mesh for mixing (old mesh)
   NGX = 37   NGY = 37   NGZ = 31
  (NGX  =112   NGY  =112   NGZ  = 96)
  gives a total of  42439 points

 initial charge density was supplied:
 charge density of overlapping atoms calculated
 number of electron     792.0000000 magnetization
 keeping initial charge density in first step


--------------------------------------------------------------------------------------------------------


 Maximum index for non-local projection operator         1743
 Maximum index for augmentation-charges         1189 (set IRDMAX)


--------------------------------------------------------------------------------------------------------


 First call to EWALD:  gamma=   0.165
 Maximum number of real-space cells 3x 3x 3
 Maximum number of reciprocal cells 3x 3x 3

    FEWALD:  cpu time      1.0538: real time      1.0592


--------------------------------------- Iteration      1(   1)  ---------------------------------------


    POTLOK:  cpu time      0.1150: real time      0.1165
    SETDIJ:  cpu time      0.0979: real time      0.0984
     EDDAV:  cpu time     12.6698: real time     12.7473
       DOS:  cpu time      0.0028: real time      0.0029
    --------------------------------------------
      LOOP:  cpu time     12.8855: real time     12.9652

 eigenvalue-minimisations  :  3824
 total energy-change (2. order) : 0.1156053E+05  (-0.3305769E+05)
 number of electron     792.0000000 magnetization
 augmentation part      792.0000000 magnetization

 Free energy of the ion-electron system (eV)
  ---------------------------------------------------
  alpha Z        PSCENC =      3563.47650690
  Ewald energy   TEWEN  =    -48582.67992463
  -Hartree energ DENC   =    -18845.50372411
  -exchange      EXHF   =         0.00000000
  -V(xc)+E(xc)   XCENC  =      3286.91405856
  PAW double counting   =     54431.09303398   -54537.79254336
  entropy T*S    EENTRO =        -0.16703652
  eigenvalues    EBANDS =      3588.78906605
  atomic energy  EATOM  =     68656.39924158
  Solvation  Ediel_sol  =         0.00000000
  ---------------------------------------------------
  free energy    TOTEN  =     11560.52867844 eV

  energy without entropy =    11560.69571497  energy(sigma->0) =    11560.61219670


--------------------------------------------------------------------------------------------------------




--------------------------------------- Iteration      1(   2)  ---------------------------------------


     EDDAV:  cpu time     13.3188: real time     13.3732
       DOS:  cpu time      0.0024: real time      0.0025
    --------------------------------------------
      LOOP:  cpu time     13.3213: real time     13.3756

 eigenvalue-minimisations  :  3808
 total energy-change (2. order) :-0.9987217E+04  (-0.9556257E+04)
 number of electron     792.0000000 magnetization
 augmentation part      792.0000000 magnetization

 Free energy of the ion-electron system (eV)
  ---------------------------------------------------
  alpha Z        PSCENC =      3563.47650690
  Ewald energy   TEWEN  =    -48582.67992463
  -Hartree energ DENC   =    -18845.50372411
  -exchange      EXHF   =         0.00000000
  -V(xc)+E(xc)   XCENC  =      3286.91405856
  PAW double counting   =     54431.09303398   -54537.79254336
  entropy T*S    EENTRO =        -0.28822369
  eigenvalues    EBANDS =     -6398.30708486
  atomic energy  EATOM  =     68656.39924158
  Solvation  Ediel_sol  =         0.00000000
  ---------------------------------------------------
  free energy    TOTEN  =      1573.31134037 eV

  energy without entropy =     1573.59956406  energy(sigma->0) =     1573.45545221


--------------------------------------------------------------------------------------------------------




--------------------------------------- Iteration      1(   3)  ---------------------------------------


     EDDAV:  cpu time     15.7286: real time     15.7927
       DOS:  cpu time      0.0021: real time      0.0021
    --------------------------------------------
      LOOP:  cpu time     15.7308: real time     15.7948

 eigenvalue-minimisations  :  4416
 total energy-change (2. order) :-0.2641374E+04  (-0.2570010E+04)
 number of electron     792.0000000 magnetization
 augmentation part      792.0000000 magnetization

 Free energy of the ion-electron system (eV)
  ---------------------------------------------------
  alpha Z        PSCENC =      3563.47650690
  Ewald energy   TEWEN  =    -48582.67992463
  -Hartree energ DENC   =    -18845.50372411
  -exchange      EXHF   =         0.00000000
  -V(xc)+E(xc)   XCENC  =      3286.91405856
  PAW double counting   =     54431.09303398   -54537.79254336
  entropy T*S    EENTRO =        -0.00000000
  eigenvalues    EBANDS =     -9039.96975554
  atomic energy  EATOM  =     68656.39924158
  Solvation  Ediel_sol  =         0.00000000
  ---------------------------------------------------
  free energy    TOTEN  =     -1068.06310662 eV

  energy without entropy =    -1068.06310662  energy(sigma->0) =    -1068.06310662


--------------------------------------------------------------------------------------------------------




--------------------------------------- Iteration      1(   4)  ---------------------------------------


     EDDAV:  cpu time     17.1514: real time     17.2204
       DOS:  cpu time      0.0020: real time      0.0020
    --------------------------------------------
      LOOP:  cpu time     17.1534: real time     17.2224

 eigenvalue-minimisations  :  5080
 total energy-change (2. order) :-0.2046898E+03  (-0.2035503E+03)
 number of electron     792.0000000 magnetization
 augmentation part      792.0000000 magnetization

 Free energy of the ion-electron system (eV)
  ---------------------------------------------------
  alpha Z        PSCENC =      3563.47650690
  Ewald energy   TEWEN  =    -48582.67992463
  -Hartree energ DENC   =    -18845.50372411
  -exchange      EXHF   =         0.00000000
  -V(xc)+E(xc)   XCENC  =      3286.91405856
  PAW double counting   =     54431.09303398   -54537.79254336
  entropy T*S    EENTRO =        -0.00000000
  eigenvalues    EBANDS =     -9244.65954629
  atomic energy  EATOM  =     68656.39924158
  Solvation  Ediel_sol  =         0.00000000
  ---------------------------------------------------
  free energy    TOTEN  =     -1272.75289738 eV

  energy without entropy =    -1272.75289738  energy(sigma->0) =    -1272.75289738


--------------------------------------------------------------------------------------------------------




--------------------------------------- Iteration      1(   5)  ---------------------------------------


     EDDAV:  cpu time     16.6588: real time     16.7468
       DOS:  cpu time      0.0022: real time      0.0022
    CHARGE:  cpu time      0.2107: real time      0.2127
    MIXING:  cpu time      0.0198: real time      0.0200
    --------------------------------------------
      LOOP:  cpu time     16.8916: real time     16.9817

 eigenvalue-minimisations  :  4984
 total energy-change (2. order) :-0.5435395E+01  (-0.5422650E+01)
 number of electron     792.0003053 magnetization
 augmentation part      202.2572515 magnetization

 Broyden mixing:
  rms(total) = 0.17278E+02    rms(broyden)= 0.17276E+02
  rms(prec ) = 0.19211E+02
  weight for this iteration     100.00

 Free energy of the ion-electron system (eV)
  ---------------------------------------------------
  alpha Z        PSCENC =      3563.47650690
  Ewald energy   TEWEN  =    -48582.67992463
  -Hartree energ DENC   =    -18845.50372411
  -exchange      EXHF   =         0.00000000
  -V(xc)+E(xc)   XCENC  =      3286.91405856
  PAW double counting   =     54431.09303398   -54537.79254336
  entropy T*S    EENTRO =        -0.00000000
  eigenvalues    EBANDS =     -9250.09494135
  atomic energy  EATOM  =     68656.39924158
  Solvation  Ediel_sol  =         0.00000000
  ---------------------------------------------------
  free energy    TOTEN  =     -1278.18829243 eV

  energy without entropy =    -1278.18829243  energy(sigma->0) =    -1278.18829243


--------------------------------------------------------------------------------------------------------




--------------------------------------- Iteration      1(   6)  ---------------------------------------


    POTLOK:  cpu time      0.1141: real time      0.1150
    SETDIJ:  cpu time      0.0910: real time      0.0913
     EDDAV:  cpu time     15.9240: real time     15.9872
       DOS:  cpu time      0.0024: real time      0.0024
    CHARGE:  cpu time      0.2119: real time      0.2142
    MIXING:  cpu time      0.0149: real time      0.0201
    --------------------------------------------
      LOOP:  cpu time     16.3583: real time     16.4301

 eigenvalue-minimisations  :  4976
 total energy-change (2. order) : 0.3022725E+03  (-0.1974765E+03)
 number of electron     792.0002455 magnetization
 augmentation part      214.1485495 magnetization

 Broyden mixing:
  rms(total) = 0.53236E+01    rms(broyden)= 0.53186E+01
  rms(prec ) = 0.58502E+01
  weight for this iteration     100.00

 eigenvalues of (default mixing * dielectric matrix)
  average eigenvalue GAMMA=   0.9664
  0.9664

 Free energy of the ion-electron system (eV)
  ---------------------------------------------------
  alpha Z        PSCENC =      3563.47650690
  Ewald energy   TEWEN  =    -48582.67992463
  -Hartree energ DENC   =    -19070.55090549
  -exchange      EXHF   =         0.00000000
  -V(xc)+E(xc)   XCENC  =      3337.94569955
  PAW double counting   =     68294.49352911   -68526.82335569
  entropy T*S    EENTRO =        -0.00000000
  eigenvalues    EBANDS =     -8648.17662883
  atomic energy  EATOM  =     68656.39924158
  Solvation  Ediel_sol  =         0.00000000
  ---------------------------------------------------
  free energy    TOTEN  =      -975.91583750 eV

  energy without entropy =     -975.91583750  energy(sigma->0) =     -975.91583750


--------------------------------------------------------------------------------------------------------




--------------------------------------- Iteration      1(   7)  ---------------------------------------


    POTLOK:  cpu time      0.1125: real time      0.1132
    SETDIJ:  cpu time      0.0916: real time      0.0920
     EDDAV:  cpu time     17.6872: real time     17.7633
       DOS:  cpu time      0.0027: real time      0.0028
    CHARGE:  cpu time      0.2152: real time      0.2178
    MIXING:  cpu time      0.0205: real time      0.0219
    --------------------------------------------
      LOOP:  cpu time     18.1298: real time     18.2109

 eigenvalue-minimisations  :  5336
 total energy-change (2. order) : 0.4150823E+01  (-0.2877181E+02)
 number of electron     792.0002649 magnetization
 augmentation part      207.3322072 magnetization

 Broyden mixing:
  rms(total) = 0.46133E+01    rms(broyden)= 0.46130E+01
  rms(prec ) = 0.48069E+01
  weight for this iteration     100.00

 eigenvalues of (default mixing * dielectric matrix)
  average eigenvalue GAMMA=   1.8410
  0.7374  2.9446

 Free energy of the ion-electron system (eV)
  ---------------------------------------------------
  alpha Z        PSCENC =      3563.47650690
  Ewald energy   TEWEN  =    -48582.67992463
  -Hartree energ DENC   =    -18914.86234983
  -exchange      EXHF   =         0.00000000
  -V(xc)+E(xc)   XCENC  =      3318.78854971
  PAW double counting   =     75326.02213379   -75569.31047268
  entropy T*S    EENTRO =        -0.00000000
  eigenvalues    EBANDS =     -8769.59869903
  atomic energy  EATOM  =     68656.39924158
  Solvation  Ediel_sol  =         0.00000000
  ---------------------------------------------------
  free energy    TOTEN  =      -971.76501419 eV

  energy without entropy =     -971.76501419  energy(sigma->0) =     -971.76501419


--------------------------------------------------------------------------------------------------------




--------------------------------------- Iteration      1(   8)  ---------------------------------------


    POTLOK:  cpu time      0.1137: real time      0.1145
    SETDIJ:  cpu time      0.0988: real time      0.0992
     EDDAV:  cpu time     17.4156: real time     17.4901
       DOS:  cpu time      0.0023: real time      0.0023
    CHARGE:  cpu time      0.2085: real time      0.2105
    MIXING:  cpu time      0.0196: real time      0.0197
    --------------------------------------------
      LOOP:  cpu time     17.8585: real time     17.9362

 eigenvalue-minimisations  :  5000
 total energy-change (2. order) : 0.1485323E-01  (-0.1100862E+02)
 number of electron     792.0002583 magnetization
 augmentation part      215.5568456 magnetization

 Broyden mixing:
  rms(total) = 0.33526E+01    rms(broyden)= 0.33524E+01
  rms(prec ) = 0.36508E+01
  weight for this iteration     100.00

 eigenvalues of (default mixing * dielectric matrix)
  average eigenvalue GAMMA=   1.2326
  2.1660  0.9317  0.6000

 Free energy of the ion-electron system (eV)
  ---------------------------------------------------
  alpha Z        PSCENC =      3563.47650690
  Ewald energy   TEWEN  =    -48582.67992463
  -Hartree energ DENC   =    -18538.62584372
  -exchange      EXHF   =         0.00000000
  -V(xc)+E(xc)   XCENC  =      3304.06170846
  PAW double counting   =     93940.71360459   -94256.06017246
  entropy T*S    EENTRO =        -0.00000000
  eigenvalues    EBANDS =     -9059.03528166
  atomic energy  EATOM  =     68656.39924158
  Solvation  Ediel_sol  =         0.00000000
  ---------------------------------------------------
  free energy    TOTEN  =      -971.75016096 eV

  energy without entropy =     -971.75016096  energy(sigma->0) =     -971.75016096


--------------------------------------------------------------------------------------------------------




--------------------------------------- Iteration      1(   9)  ---------------------------------------


    POTLOK:  cpu time      0.1122: real time      0.1133
    SETDIJ:  cpu time      0.0841: real time      0.0844
     EDDAV:  cpu time     16.5809: real time     16.6549
       DOS:  cpu time      0.0024: real time      0.0024
    CHARGE:  cpu time      0.2126: real time      0.2146
    MIXING:  cpu time      0.0209: real time      0.0219
    --------------------------------------------
      LOOP:  cpu time     17.0132: real time     17.0916

 eigenvalue-minimisations  :  5048
 total energy-change (2. order) : 0.5504393E+01  (-0.3440501E+01)
 number of electron     792.0002631 magnetization
 augmentation part      211.4772735 magnetization

 Broyden mixing:
  rms(total) = 0.26545E+00    rms(broyden)= 0.26473E+00
  rms(prec ) = 0.29217E+00
  weight for this iteration     100.00

 eigenvalues of (default mixing * dielectric matrix)
  average eigenvalue GAMMA=   1.1231
  2.1746  0.8363  0.8363  0.6454

 Free energy of the ion-electron system (eV)
  ---------------------------------------------------
  alpha Z        PSCENC =      3563.47650690
  Ewald energy   TEWEN  =    -48582.67992463
  -Hartree energ DENC   =    -18682.81114001
  -exchange      EXHF   =         0.00000000
  -V(xc)+E(xc)   XCENC  =      3308.94035081
  PAW double counting   =     88686.76079980   -88983.00425985
  entropy T*S    EENTRO =        -0.00000000
  eigenvalues    EBANDS =     -8933.32734234
  atomic energy  EATOM  =     68656.39924158
  Solvation  Ediel_sol  =         0.00000000
  ---------------------------------------------------
  free energy    TOTEN  =      -966.24576775 eV

  energy without entropy =     -966.24576775  energy(sigma->0) =     -966.24576775


--------------------------------------------------------------------------------------------------------




--------------------------------------- Iteration      1(  10)  ---------------------------------------


    POTLOK:  cpu time      0.1109: real time      0.1116
    SETDIJ:  cpu time      0.0948: real time      0.0951
     EDDAV:  cpu time     16.8792: real time     16.9512
       DOS:  cpu time      0.0024: real time      0.0024
    CHARGE:  cpu time      0.2104: real time      0.2124
    MIXING:  cpu time      0.0196: real time      0.0197
    --------------------------------------------
      LOOP:  cpu time     17.3172: real time     17.3925

 eigenvalue-minimisations  :  5272
 total energy-change (2. order) :-0.3489356E-01  (-0.8173056E-01)
 number of electron     792.0002625 magnetization
 augmentation part      211.5158963 magnetization

 Broyden mixing:
  rms(total) = 0.20944E+00    rms(broyden)= 0.20938E+00
  rms(prec ) = 0.22631E+00
  weight for this iteration     100.00

 eigenvalues of (default mixing * dielectric matrix)
  average eigenvalue GAMMA=   1.2871
  2.4601  1.7387  1.0608  0.6514  0.5244

 Free energy of the ion-electron system (eV)
  ---------------------------------------------------
  alpha Z        PSCENC =      3563.47650690
  Ewald energy   TEWEN  =    -48582.67992463
  -Hartree energ DENC   =    -18704.94459728
  -exchange      EXHF   =         0.00000000
  -V(xc)+E(xc)   XCENC  =      3310.53823905
  PAW double counting   =     88875.85994766   -89174.38296315
  entropy T*S    EENTRO =        -0.00000000
  eigenvalues    EBANDS =     -8910.54711144
  atomic energy  EATOM  =     68656.39924158
  Solvation  Ediel_sol  =         0.00000000
  ---------------------------------------------------
  free energy    TOTEN  =      -966.28066130 eV

  energy without entropy =     -966.28066130  energy(sigma->0) =     -966.28066130


--------------------------------------------------------------------------------------------------------




--------------------------------------- Iteration      1(  11)  ---------------------------------------


    POTLOK:  cpu time      0.1112: real time      0.1123
    SETDIJ:  cpu time      0.0941: real time      0.0945
     EDDAV:  cpu time     15.3287: real time     15.3949
       DOS:  cpu time      0.0019: real time      0.0019
    CHARGE:  cpu time      0.2081: real time      0.2090
    MIXING:  cpu time      0.0231: real time      0.0232
    --------------------------------------------
      LOOP:  cpu time     15.7671: real time     15.8358

 eigenvalue-minimisations  :  4480
 total energy-change (2. order) :-0.6108448E-01  (-0.4602639E-01)
 number of electron     792.0002616 magnetization
 augmentation part      211.4947608 magnetization

 Broyden mixing:
  rms(total) = 0.21486E+00    rms(broyden)= 0.21483E+00
  rms(prec ) = 0.25936E+00
  weight for this iteration     100.00

 eigenvalues of (default mixing * dielectric matrix)
  average eigenvalue GAMMA=   1.2627
  2.5343  1.8342  1.0145  1.0145  0.5893  0.5893

 Free energy of the ion-electron system (eV)
  ---------------------------------------------------
  alpha Z        PSCENC =      3563.47650690
  Ewald energy   TEWEN  =    -48582.67992463
  -Hartree energ DENC   =    -18745.87490265
  -exchange      EXHF   =         0.00000000
  -V(xc)+E(xc)   XCENC  =      3313.38969291
  PAW double counting   =     89291.53955669   -89594.15002725
  entropy T*S    EENTRO =        -0.00000000
  eigenvalues    EBANDS =     -8868.44188933
  atomic energy  EATOM  =     68656.39924158
  Solvation  Ediel_sol  =         0.00000000
  ---------------------------------------------------
  free energy    TOTEN  =      -966.34174578 eV

  energy without entropy =     -966.34174578  energy(sigma->0) =     -966.34174578


--------------------------------------------------------------------------------------------------------




--------------------------------------- Iteration      1(  12)  ---------------------------------------


    POTLOK:  cpu time      0.1121: real time      0.1128
    SETDIJ:  cpu time      0.0915: real time      0.0919
     EDDAV:  cpu time     17.8516: real time     17.9273
       DOS:  cpu time      0.0020: real time      0.0021
    CHARGE:  cpu time      0.2086: real time      0.2097
    MIXING:  cpu time      0.0241: real time      0.0242
    --------------------------------------------
      LOOP:  cpu time     18.2900: real time     18.3679

 eigenvalue-minimisations  :  5256
 total energy-change (2. order) : 0.5497096E-01  (-0.4895867E-01)
 number of electron     792.0002625 magnetization
 augmentation part      211.1930407 magnetization

 Broyden mixing:
  rms(total) = 0.52950E-01    rms(broyden)= 0.52830E-01
  rms(prec ) = 0.61480E-01
  weight for this iteration     100.00

 eigenvalues of (default mixing * dielectric matrix)
  average eigenvalue GAMMA=   1.2300
  2.5859  1.5383  1.5383  1.0033  0.7827  0.5806  0.5806

 Free energy of the ion-electron system (eV)
  ---------------------------------------------------
  alpha Z        PSCENC =      3563.47650690
  Ewald energy   TEWEN  =    -48582.67992463
  -Hartree energ DENC   =    -18742.67191881
  -exchange      EXHF   =         0.00000000
  -V(xc)+E(xc)   XCENC  =      3312.73660312
  PAW double counting   =     89330.41068290   -89632.23269966
  entropy T*S    EENTRO =        -0.00000000
  eigenvalues    EBANDS =     -8871.72526623
  atomic energy  EATOM  =     68656.39924158
  Solvation  Ediel_sol  =         0.00000000
  ---------------------------------------------------
  free energy    TOTEN  =      -966.28677482 eV

  energy without entropy =     -966.28677482  energy(sigma->0) =     -966.28677482


--------------------------------------------------------------------------------------------------------




--------------------------------------- Iteration      1(  13)  ---------------------------------------


    POTLOK:  cpu time      0.1113: real time      0.1124
    SETDIJ:  cpu time      0.0937: real time      0.0940
     EDDAV:  cpu time     17.5752: real time     17.6498
       DOS:  cpu time      0.0015: real time      0.0015
    CHARGE:  cpu time      0.2074: real time      0.2083
    MIXING:  cpu time      0.0239: real time      0.0240
    --------------------------------------------
      LOOP:  cpu time     18.0129: real time     18.0901

 eigenvalue-minimisations  :  5312
 total energy-change (2. order) : 0.6378434E-03  (-0.1822708E-02)
 number of electron     792.0002624 magnetization
 augmentation part      211.2395658 magnetization

 Broyden mixing:
  rms(total) = 0.22302E-01    rms(broyden)= 0.22292E-01
  rms(prec ) = 0.26646E-01
  weight for this iteration     100.00

 eigenvalues of (default mixing * dielectric matrix)
  average eigenvalue GAMMA=   1.1930
  2.6029  1.7282  1.7282  0.9394  0.6929  0.6929  0.5353  0.6245

 Free energy of the ion-electron system (eV)
  ---------------------------------------------------
  alpha Z        PSCENC =      3563.47650690
  Ewald energy   TEWEN  =    -48582.67992463
  -Hartree energ DENC   =    -18742.51772172
  -exchange      EXHF   =         0.00000000
  -V(xc)+E(xc)   XCENC  =      3312.76618123
  PAW double counting   =     89366.79484978   -89668.60124025
  entropy T*S    EENTRO =        -0.00000000
  eigenvalues    EBANDS =     -8871.92402987
  atomic energy  EATOM  =     68656.39924158
  Solvation  Ediel_sol  =         0.00000000
  ---------------------------------------------------
  free energy    TOTEN  =      -966.28613698 eV

  energy without entropy =     -966.28613698  energy(sigma->0) =     -966.28613698


--------------------------------------------------------------------------------------------------------




--------------------------------------- Iteration      1(  14)  ---------------------------------------


    POTLOK:  cpu time      0.1125: real time      0.1133
    SETDIJ:  cpu time      0.0939: real time      0.0947
     EDDAV:  cpu time     17.0626: real time     17.1355
       DOS:  cpu time      0.0017: real time      0.0017
    CHARGE:  cpu time      0.2033: real time      0.2042
    MIXING:  cpu time      0.0221: real time      0.0221
    --------------------------------------------
      LOOP:  cpu time     17.4961: real time     17.5716

 eigenvalue-minimisations  :  5344
 total energy-change (2. order) : 0.2472957E-03  (-0.1491210E-03)
 number of electron     792.0002623 magnetization
 augmentation part      211.2484356 magnetization

 Broyden mixing:
  rms(total) = 0.12157E-01    rms(broyden)= 0.12156E-01
  rms(prec ) = 0.14230E-01
  weight for this iteration     100.00

 eigenvalues of (default mixing * dielectric matrix)
  average eigenvalue GAMMA=   1.2315
  2.5726  1.8639  1.8639  1.0461  0.9701  0.9701  0.5729  0.5729  0.6515

 Free energy of the ion-electron system (eV)
  ---------------------------------------------------
  alpha Z        PSCENC =      3563.47650690
  Ewald energy   TEWEN  =    -48582.67992463
  -Hartree energ DENC   =    -18743.53304577
  -exchange      EXHF   =         0.00000000
  -V(xc)+E(xc)   XCENC  =      3312.83523872
  PAW double counting   =     89361.37112148   -89663.09365135
  entropy T*S    EENTRO =        -0.00000000
  eigenvalues    EBANDS =     -8871.06137661
  atomic energy  EATOM  =     68656.39924158
  Solvation  Ediel_sol  =         0.00000000
  ---------------------------------------------------
  free energy    TOTEN  =      -966.28588968 eV

  energy without entropy =     -966.28588968  energy(sigma->0) =     -966.28588968


--------------------------------------------------------------------------------------------------------




--------------------------------------- Iteration      1(  15)  ---------------------------------------


    POTLOK:  cpu time      0.1116: real time      0.1127
    SETDIJ:  cpu time      0.0813: real time      0.0816
     EDDAV:  cpu time     17.3761: real time     17.4506
       DOS:  cpu time      0.0022: real time      0.0022
    CHARGE:  cpu time      0.2121: real time      0.2130
    MIXING:  cpu time      0.0250: real time      0.0250
    --------------------------------------------
      LOOP:  cpu time     17.8083: real time     17.8851

 eigenvalue-minimisations  :  5312
 total energy-change (2. order) :-0.1083425E-03  (-0.9369117E-04)
 number of electron     792.0002623 magnetization
 augmentation part      211.2407698 magnetization

 Broyden mixing:
  rms(total) = 0.91855E-02    rms(broyden)= 0.91823E-02
  rms(prec ) = 0.11061E-01
  weight for this iteration     100.00

 eigenvalues of (default mixing * dielectric matrix)
  average eigenvalue GAMMA=   1.2295
  2.6903  2.1582  2.1582  0.8991  0.8991  0.8875  0.8875  0.5837  0.5837  0.5471

 Free energy of the ion-electron system (eV)
  ---------------------------------------------------
  alpha Z        PSCENC =      3563.47650690
  Ewald energy   TEWEN  =    -48582.67992463
  -Hartree energ DENC   =    -18744.81349165
  -exchange      EXHF   =         0.00000000
  -V(xc)+E(xc)   XCENC  =      3312.89652604
  PAW double counting   =     89340.19195433   -89641.72615209
  entropy T*S    EENTRO =        -0.00000000
  eigenvalues    EBANDS =     -8870.03065849
  atomic energy  EATOM  =     68656.39924158
  Solvation  Ediel_sol  =         0.00000000
  ---------------------------------------------------
  free energy    TOTEN  =      -966.28599803 eV

  energy without entropy =     -966.28599803  energy(sigma->0) =     -966.28599803


--------------------------------------------------------------------------------------------------------




--------------------------------------- Iteration      1(  16)  ---------------------------------------


    POTLOK:  cpu time      0.1127: real time      0.1139
    SETDIJ:  cpu time      0.0910: real time      0.0914
     EDDAV:  cpu time     18.1044: real time     18.1822
       DOS:  cpu time      0.0021: real time      0.0021
    CHARGE:  cpu time      0.2053: real time      0.2067
    MIXING:  cpu time      0.0246: real time      0.0251
    --------------------------------------------
      LOOP:  cpu time     18.5402: real time     18.6213

 eigenvalue-minimisations  :  5264
 total energy-change (2. order) : 0.3597984E-04  (-0.1021867E-03)
 number of electron     792.0002623 magnetization
 augmentation part      211.2552383 magnetization

 Broyden mixing:
  rms(total) = 0.48382E-02    rms(broyden)= 0.48352E-02
  rms(prec ) = 0.55270E-02
  weight for this iteration     100.00

 eigenvalues of (default mixing * dielectric matrix)
  average eigenvalue GAMMA=   1.1968
  2.7614  2.4342  1.9164  0.9609  0.9609  0.7905  0.7905  0.8086  0.5845  0.5845
  0.5728

 Free energy of the ion-electron system (eV)
  ---------------------------------------------------
  alpha Z        PSCENC =      3563.47650690
  Ewald energy   TEWEN  =    -48582.67992463
  -Hartree energ DENC   =    -18745.43119507
  -exchange      EXHF   =         0.00000000
  -V(xc)+E(xc)   XCENC  =      3312.94304175
  PAW double counting   =     89339.42690368   -89640.90793004
  entropy T*S    EENTRO =        -0.00000000
  eigenvalues    EBANDS =     -8869.51260621
  atomic energy  EATOM  =     68656.39924158
  Solvation  Ediel_sol  =         0.00000000
  ---------------------------------------------------
  free energy    TOTEN  =      -966.28596205 eV

  energy without entropy =     -966.28596205  energy(sigma->0) =     -966.28596205


--------------------------------------------------------------------------------------------------------




--------------------------------------- Iteration      1(  17)  ---------------------------------------


    POTLOK:  cpu time      0.1129: real time      0.1140
    SETDIJ:  cpu time      0.0961: real time      0.0965
     EDDAV:  cpu time     17.8672: real time     17.9472
       DOS:  cpu time      0.0023: real time      0.0023
    CHARGE:  cpu time      0.2084: real time      0.2098
    MIXING:  cpu time      0.0237: real time      0.0238
    --------------------------------------------
      LOOP:  cpu time     18.3106: real time     18.3936

 eigenvalue-minimisations  :  5344
 total energy-change (2. order) : 0.4362388E-05  (-0.1268712E-04)
 number of electron     792.0002623 magnetization
 augmentation part      211.2529031 magnetization

 Broyden mixing:
  rms(total) = 0.27678E-02    rms(broyden)= 0.27663E-02
  rms(prec ) = 0.33238E-02
  weight for this iteration     100.00

 eigenvalues of (default mixing * dielectric matrix)
  average eigenvalue GAMMA=   1.1708
  2.8460  2.4575  1.8458  1.0444  1.0444  0.8778  0.8778  0.6713  0.6713  0.6231
  0.5755  0.5151

 Free energy of the ion-electron system (eV)
  ---------------------------------------------------
  alpha Z        PSCENC =      3563.47650690
  Ewald energy   TEWEN  =    -48582.67992463
  -Hartree energ DENC   =    -18745.75019668
  -exchange      EXHF   =         0.00000000
  -V(xc)+E(xc)   XCENC  =      3312.95928162
  PAW double counting   =     89335.11207863   -89636.57918659
  entropy T*S    EENTRO =        -0.00000000
  eigenvalues    EBANDS =     -8869.22375852
  atomic energy  EATOM  =     68656.39924158
  Solvation  Ediel_sol  =         0.00000000
  ---------------------------------------------------
  free energy    TOTEN  =      -966.28595768 eV

  energy without entropy =     -966.28595768  energy(sigma->0) =     -966.28595768


--------------------------------------------------------------------------------------------------------




--------------------------------------- Iteration      1(  18)  ---------------------------------------


    POTLOK:  cpu time      0.1119: real time      0.1132
    SETDIJ:  cpu time      0.0872: real time      0.0876
     EDDAV:  cpu time     17.1615: real time     17.2363
       DOS:  cpu time      0.0017: real time      0.0017
    CHARGE:  cpu time      0.2076: real time      0.2085
    MIXING:  cpu time      0.0213: real time      0.0214
    --------------------------------------------
      LOOP:  cpu time     17.5913: real time     17.6686

 eigenvalue-minimisations  :  5328
 total energy-change (2. order) : 0.2795365E-05  (-0.2103764E-05)
 number of electron     792.0002623 magnetization
 augmentation part      211.2519653 magnetization

 Broyden mixing:
  rms(total) = 0.18553E-02    rms(broyden)= 0.18550E-02
  rms(prec ) = 0.22493E-02
  weight for this iteration     100.00

 eigenvalues of (default mixing * dielectric matrix)
  average eigenvalue GAMMA=   1.1819
  2.9451  2.4368  1.7984  1.3422  1.1163  0.9168  0.9168  0.7899  0.7899  0.6590
  0.5721  0.5721  0.5089

 Free energy of the ion-electron system (eV)
  ---------------------------------------------------
  alpha Z        PSCENC =      3563.47650690
  Ewald energy   TEWEN  =    -48582.67992463
  -Hartree energ DENC   =    -18745.83211085
  -exchange      EXHF   =         0.00000000
  -V(xc)+E(xc)   XCENC  =      3312.96172346
  PAW double counting   =     89334.09084351   -89635.55655542
[...]
      7.58456      3.79228      1.99678    -0.00134  0.00777 -2.87573 ( -0.63504  6.00000)
      7.58456      7.58456      1.99678    -0.00869 -0.02108 -2.90336 ( -0.63464  6.00000)
      0.00000      1.89614      0.40437     0.00002  0.00105 -2.89049 ( -0.63483  6.00000)
      0.00000      5.68842      0.40437     0.00001 -0.00128 -2.89237 ( -0.63480  6.00000)
      0.00000      9.48070      0.40437     0.00001  0.00043 -2.89826 ( -0.63482  6.00000)
      3.79228      1.89614      0.40437     0.00275  0.00380 -2.88084 ( -0.63483  6.00000)
      3.79228      5.68842      0.40437     0.00033 -0.00620 -2.88883 ( -0.63483  6.00000)
      3.79228      9.48070      0.40437    -0.00234  0.00132 -2.90597 ( -0.63484  6.00000)
      7.58456      1.89614      0.40437    -0.00270  0.00375 -2.88083 ( -0.63484  6.00000)
      7.58456      5.68842      0.40437    -0.00029 -0.00620 -2.88883 ( -0.63482  6.00000)
      7.58456      9.48070      0.40437     0.00236  0.00135 -2.90598 ( -0.63485  6.00000)
      1.89614      1.89614      2.80551     0.02069  0.00198 -2.90600 ( -0.63481  6.00000)
      1.89614      5.68842      2.80551    -0.00002  0.00434 -2.89186 ( -0.63483  6.00000)
      1.89614      9.48070      2.80551    -0.02094 -0.00017 -2.88839 ( -0.63487  6.00000)
      5.68842      1.89614      2.80551     0.00000  0.02002 -2.89768 ( -0.63468  6.00000)
      5.68842      5.68842      2.80551     0.00001  0.18265 -2.78816 ( -0.63430  6.00000)
      5.68842      9.48070      2.80551    -0.00001  0.01662 -2.90238 ( -0.63492  6.00000)
      9.48070      1.89614      2.80551    -0.02070  0.00197 -2.90602 ( -0.63481  6.00000)
      9.48070      5.68842      2.80551     0.00004  0.00436 -2.89187 ( -0.63483  6.00000)
      9.48070      9.48070      2.80551     0.02089 -0.00015 -2.88840 ( -0.63487  6.00000)
 -----------------------------------------------------------------------------------------
    total drift (improves with k-points):   0.00016 -0.00057 -0.07275




--------------------------------------------------------------------------------------------------------




 MACROSCOPIC STATIC DIELECTRIC TENSOR (including local field effects in DFT)
 ------------------------------------------------------
           6.957252     0.000002    -0.000004
          -0.000007     6.942521    -0.043895
          -0.000001    -0.043898     6.369084
 ------------------------------------------------------



--------------------------------------------------------------------------------------------------------




--------------------------------------------------------------------------------------------------------




 MACROSCOPIC STATIC DIELECTRIC TENSOR (including local field effects in DFT)
 ------------------------------------------------------
           6.957252     0.000002    -0.000004
          -0.000007     6.942521    -0.043895
          -0.000001    -0.043898     6.369084
 ------------------------------------------------------


 PIEZOELECTRIC TENSOR (including local field effects)  for field in x, y, z        (e  Angst)
          XX          YY          ZZ          XY          YZ          ZX
  --------------------------------------------------------------------------------
  x    -0.00021     0.00025     0.00023    -0.88167    -0.00048    -0.06857
  y    -1.04935    -0.07620    -1.73162    -0.00015     0.31257     0.00060
  z     0.17630     0.19334    -0.05951     0.00009     0.01515    -0.00004

 PIEZOELECTRIC TENSOR (including local field effects)  for field in x, y, z        (C/m^2)
          XX          YY          ZZ          XY          YZ          ZX
  --------------------------------------------------------------------------------
  x    -0.00000     0.00000     0.00000    -0.01136    -0.00001    -0.00088
  y    -0.01352    -0.00098    -0.02232    -0.00000     0.00403     0.00001
  z     0.00227     0.00249    -0.00077     0.00000     0.00020    -0.00000

 BORN EFFECTIVE CHARGES (including local field effects) (in |e|, cummulative output)
 ---------------------------------------------------------------------------------
 ion    1
    1     6.67823    -0.00464    -0.00680
    2    -0.03976     6.64906     0.03752
    3     0.01031    -0.01237     5.80186
 ion    2
    1     6.62744     0.00218     0.00408
    2    -0.05880     6.66894     0.00761
    3    -0.02278     0.00781     5.78852
 ion    3
    1     6.63562     0.00457     0.00607
    2    -0.00350     6.64870     0.02739
    3     0.00688    -0.00500     5.77096
 ion    4
    1     6.70723     0.00001    -0.00001
    2    -0.00005     6.42990     0.03785
    3     0.00001    -0.52848     5.83036
 ion    5
    1     6.40998     0.00003    -0.00000
    2    -0.00002     6.34522    -0.62961
    3     0.00001    -0.66781     5.64152
 ion    6
    1     6.59263     0.00009     0.00001
    2    -0.00005     6.44208     0.09950
    3     0.00004    -0.54792     5.73835
 ion    7
    1     6.67825     0.00470     0.00684
    2     0.03973     6.64904     0.03753
    3    -0.01026    -0.01240     5.80187
 ion    8
    1     6.62739    -0.00210    -0.00407
    2     0.05873     6.66889     0.00760
    3     0.02275     0.00783     5.78852
 ion    9
    1     6.63557    -0.00462    -0.00605
    2     0.00345     6.64877     0.02733
    3    -0.00684    -0.00500     5.77095
 ion   10
    1     6.66149    -0.00014     0.00073
    2     0.00336     6.64856    -0.02075
    3     0.00117     0.00064     5.78610
 ion   11
    1     6.67481    -0.00137     0.01129
    2     0.03910     6.66671     0.04062
    3    -0.00052    -0.00211     5.79580
 ion   12
    1     6.64792     0.00148    -0.00592
    2     0.05902     6.66921     0.03332
    3     0.00617     0.00136     5.78612
 ion   13
    1     6.65572     0.00004    -0.00004
    2     0.00008     6.61126    -0.06687
    3    -0.00002     0.00514     5.78600
 ion   14
    1     6.73469    -0.00006    -0.00003
    2     0.00002     6.67165    -0.35503
    3    -0.00004     0.00323     5.61898
 ion   15
    1     6.58849    -0.00008    -0.00008
    2     0.00012     6.69715    -0.51966
    3    -0.00006    -0.00573     5.83323
 ion   16
    1     6.66156     0.00006    -0.00077
    2    -0.00320     6.64857    -0.02079
    3    -0.00118     0.00065     5.78612
 ion   17
    1     6.67477     0.00130    -0.01134
    2    -0.03909     6.66679     0.04059
    3     0.00042    -0.00214     5.79581
 ion   18
    1     6.64790    -0.00147     0.00582
    2    -0.05892     6.66919     0.03329
    3    -0.00619     0.00135     5.78608
 ion   19
    1     6.65639     0.00004    -0.00003
    2     0.00002     6.65121     0.00890
    3    -0.00005    -0.00266     5.78661
 ion   20
    1     6.65270     0.00004     0.00000
    2     0.00002     6.66424    -0.02518
    3     0.00000    -0.00034     5.78531
 ion   21
    1     6.66401     0.00010    -0.00006
    2    -0.00003     6.66548    -0.02706
    3    -0.00005     0.00318     5.78884
 ion   22
    1     6.65923    -0.00007    -0.00176
    2     0.00562     6.64836     0.01750
    3     0.00084    -0.01026     5.78482
 ion   23
    1     6.61014    -0.00025    -0.03262
    2     0.03655     6.66924    -0.07970
    3     0.00077     0.00252     5.74673
 ion   24
    1     6.70230     0.00012     0.02544
    2     0.05093     6.67194    -0.08110
    3    -0.00102     0.00978     5.80943
 ion   25
    1     6.65927     0.00010     0.00169
    2    -0.00569     6.64840     0.01748
    3    -0.00083    -0.01030     5.78484
 ion   26
    1     6.61017     0.00030     0.03257
    2    -0.03661     6.66924    -0.07977
    3    -0.00085     0.00254     5.74672
 ion   27
    1     6.70227    -0.00010    -0.02553
    2    -0.05100     6.67193    -0.08116
    3     0.00094     0.00975     5.80944
 ion   28
    1     6.65489    -0.00004     0.00000
    2     0.00009     6.65578    -0.02621
    3    -0.00002    -0.00245     5.78988
 ion   29
    1     6.65417    -0.00003    -0.00000
    2    -0.00001     6.66105    -0.00347
    3    -0.00003    -0.00114     5.77979
 ion   30
    1     6.66238    -0.00006    -0.00000
    2    -0.00002     6.65701    -0.01728
    3     0.00003     0.00308     5.78750
 ion   31
    1     6.60704     0.00012     0.05902
    2    -0.02019     6.64877    -0.06023
    3    -0.00106    -0.01182     5.74776
 ion   32
    1     6.68221     0.00165    -0.04071
    2    -0.07178     6.65933    -0.05039
    3    -0.04067    -0.00111     5.76433
 ion   33
    1     6.70911     0.00076    -0.05824
    2    -0.00591     6.64816    -0.02726
    3     0.00440     0.01394     5.83672
 ion   34
    1     6.60708    -0.00016    -0.05902
    2     0.02024     6.64876    -0.06025
    3     0.00101    -0.01180     5.74779
 ion   35
    1     6.68218    -0.00176     0.04073
    2     0.07187     6.65930    -0.05047
    3     0.04062    -0.00114     5.76432
 ion   36
    1     6.70910    -0.00077     0.05823
    2     0.00600     6.64812    -0.02721
    3    -0.00441     0.01391     5.83674
 ion   37
    1    -5.53444    -0.00003    -0.00002
    2     0.00000    -1.11403     0.00517
    3    -0.00004     0.00054    -2.90276
 ion   38
    1    -5.52870    -0.00001     0.00004
    2    -0.00002    -1.12452     0.00891
    3     0.00004     0.00544    -2.89071
 ion   39
    1    -5.53731     0.00002     0.00001
    2     0.00003    -1.12762     0.00125
    3    -0.00003    -0.00109    -2.88768
 ion   40
    1    -5.56677    -0.01748    -0.06425
    2     0.11209    -1.11827     0.01715
    3     0.01868     0.01936    -2.86445
 ion   41
    1    -5.41869     0.25806     0.05232
    2     0.16342    -1.10745     0.02346
    3     0.04348     0.03739    -2.88818
 ion   42
    1    -5.49259    -0.02122     0.06375
    2     0.04421    -1.09857    -0.01073
    3    -0.04312     0.01777    -2.92899
 ion   43
    1    -5.56689     0.01749     0.06428
    2    -0.11212    -1.11827     0.01718
    3    -0.01867     0.01937    -2.86449
 ion   44
    1    -5.41861    -0.25806    -0.05234
    2    -0.16340    -1.10741     0.02348
    3    -0.04347     0.03739    -2.88818
 ion   45
    1    -5.49254     0.02117    -0.06372
    2    -0.04418    -1.09859    -0.01077
    3     0.04309     0.01775    -2.92895
 ion   46
    1    -1.12882     0.00342    -0.00390
    2    -0.00519    -5.53350    -0.02465
    3    -0.00113    -0.00096    -2.89304
 ion   47
    1    -1.12300    -0.00478    -0.00131
    2    -0.00339    -5.55119     0.00130
    3     0.00002     0.00685    -2.89559
 ion   48
    1    -1.11950     0.00107     0.00242
    2    -0.00738    -5.52781    -0.02013
    3    -0.00022    -0.00542    -2.89305
 ion   49
    1    -1.12097    -0.00001    -0.00000
    2     0.00000    -5.58327    -0.10331
    3    -0.00002    -0.04957    -2.95353
 ion   50
    1    -1.12149     0.00003    -0.00001
    2     0.00002    -5.53711     0.08675
    3    -0.00002     0.03787    -2.84349
 ion   51
    1    -1.12295    -0.00002    -0.00008
    2    -0.00001    -5.40402    -0.05886
    3     0.00001    -0.04018    -2.81450
 ion   52
    1    -1.12880    -0.00338     0.00384
    2     0.00517    -5.53347    -0.02465
    3     0.00116    -0.00094    -2.89303
 ion   53
    1    -1.12297     0.00479     0.00130
    2     0.00342    -5.55125     0.00140
    3    -0.00001     0.00687    -2.89559
 ion   54
    1    -1.11952    -0.00110    -0.00244
    2     0.00732    -5.52786    -0.02014
    3     0.00021    -0.00544    -2.89305
 ion   55
    1    -1.12321     0.01310    -0.00018
    2    -0.00394    -5.52240     0.01665
    3    -0.00055     0.01607    -2.89302
 ion   56
    1    -1.12514     0.00415    -0.00256
    2     0.00822    -5.53232    -0.03805
    3     0.00488     0.00235    -2.89507
 ion   57
    1    -1.11277    -0.00582    -0.00358
    2     0.00138    -5.54246    -0.02975
    3    -0.00249    -0.01359    -2.89986
 ion   58
    1    -1.11892    -0.00001     0.00001
    2     0.00001    -5.43744     0.03755
    3    -0.00000     0.33729    -2.89021
 ion   59
    1    -1.02007    -0.00001     0.00002
    2     0.00000    -5.65277     0.49249
    3     0.00001     0.53257    -2.73010
 ion   60
    1    -1.16443    -0.00002     0.00005
    2    -0.00010    -4.96172     0.52447
    3    -0.00000     0.55052    -2.96146
 ion   61
    1    -1.12319    -0.01309     0.00028
    2     0.00395    -5.52243     0.01668
    3     0.00053     0.01608    -2.89302
 ion   62
    1    -1.12515    -0.00419     0.00256
    2    -0.00821    -5.53227    -0.03805
    3    -0.00489     0.00238    -2.89506
 ion   63
    1    -1.11279     0.00586     0.00358
    2    -0.00143    -5.54250    -0.02962
    3     0.00249    -0.01359    -2.89989
 ion   64
    1    -5.53768     0.00002     0.00002
    2    -0.00006    -1.12023     0.00203
    3     0.00000     0.00306    -2.89295
 ion   65
    1    -5.54110     0.00002     0.00003
    2     0.00000    -1.11722     0.00238
    3     0.00003    -0.00128    -2.89624
 ion   66
    1    -5.53256    -0.00005     0.00006
    2     0.00001    -1.13136     0.00589
    3     0.00001    -0.00128    -2.89078
 ion   67
    1    -5.53693    -0.00661     0.00151
    2     0.00827    -1.11761     0.00562
    3    -0.00204     0.00983    -2.89199
 ion   68
    1    -5.56591     0.00353     0.04321
    2    -0.07378    -1.11146     0.03061
    3    -0.04772    -0.00689    -2.88567
 ion   69
    1    -5.51108     0.00427    -0.03463
    2    -0.11125    -1.14009     0.04337
    3     0.02872    -0.00565    -2.89202
 ion   70
    1    -5.53699     0.00658    -0.00142
    2    -0.00829    -1.11761     0.00562
    3     0.00209     0.00984    -2.89201
 ion   71
    1    -5.56590    -0.00351    -0.04317
    2     0.07380    -1.11150     0.03065
    3     0.04782    -0.00690    -2.88569
 ion   72
    1    -5.51098    -0.00422     0.03476
    2     0.11124    -1.14010     0.04335
    3    -0.02869    -0.00565    -2.89198
 ion   73
    1    -5.53646    -0.00090    -0.00030
    2     0.00052    -1.12065    -0.00134
    3    -0.00037    -0.00193    -2.89357
 ion   74
    1    -5.53166     0.00054    -0.00530
    2    -0.01379    -1.11898     0.00566
    3    -0.01275     0.00160    -2.89810
 ion   75
    1    -5.54099    -0.00001     0.00385
    2    -0.02117    -1.13000     0.00819
    3     0.01124     0.00023    -2.88850
 ion   76
    1    -5.53531     0.00002     0.00005
    2    -0.00000    -1.11916     0.00634
    3     0.00001    -0.00336    -2.89154
 ion   77
    1    -5.45933    -0.00002    -0.00001
    2     0.00001    -1.09571     0.08380
    3     0.00004     0.00097    -2.83746
 ion   78
    1    -5.59926    -0.00002     0.00002
    2    -0.00002    -1.15046     0.12199
    3     0.00004    -0.00217    -2.91631
 ion   79
    1    -5.53650     0.00087     0.00032
    2    -0.00051    -1.12067    -0.00130
    3     0.00039    -0.00191    -2.89358
 ion   80
    1    -5.53170    -0.00058     0.00533
    2     0.01375    -1.11899     0.00567
    3     0.01280     0.00159    -2.89812
 ion   81
    1    -5.54098    -0.00000    -0.00376
    2     0.02119    -1.12999     0.00816
    3    -0.01119     0.00024    -2.88848
 ion   82
    1    -1.12222     0.00002     0.00004
    2    -0.00005    -5.53068    -0.00728
    3     0.00002     0.00299    -2.89266
 ion   83
    1    -1.12293     0.00002    -0.00003
    2    -0.00006    -5.53900     0.01729
    3    -0.00002     0.00175    -2.88862
 ion   84
    1    -1.12023     0.00001     0.00001
    2     0.00005    -5.53840     0.01511
    3    -0.00000    -0.00312    -2.89829
 ion   85
    1    -1.12318     0.00809     0.00011
    2    -0.00165    -5.52290    -0.01838
    3    -0.00084     0.01357    -2.89334
 ion   86
    1    -1.12411    -0.00941    -0.00203
    2     0.00802    -5.51278     0.04828
    3     0.00137     0.00777    -2.87504
 ion   87
    1    -1.12527    -0.00492     0.00388
    2     0.00309    -5.55649     0.03820
    3     0.00872    -0.02112    -2.90269
 ion   88
    1    -1.12320    -0.00810    -0.00010
    2     0.00166    -5.52288    -0.01841
    3     0.00082     0.01356    -2.89333
 ion   89
    1    -1.12408     0.00948     0.00208
    2    -0.00797    -5.51272     0.04832
    3    -0.00135     0.00777    -2.87506
 ion   90
    1    -1.12528     0.00496    -0.00388
    2    -0.00313    -5.55648     0.03828
    3    -0.00869    -0.02107    -2.90269
 ion   91
    1    -1.12379    -0.00003    -0.00001
    2     0.00002    -5.53520     0.01425
    3     0.00002     0.00105    -2.88982
 ion   92
    1    -1.12214    -0.00005     0.00001
    2    -0.00000    -5.54504    -0.00090
    3     0.00001    -0.00127    -2.89170
 ion   93
    1    -1.12109    -0.00000    -0.00003
    2     0.00000    -5.53269     0.01250
    3     0.00001     0.00044    -2.89758
 ion   94
    1    -1.11974     0.00447    -0.00301
    2    -0.00344    -5.53315     0.03522
    3     0.00274     0.00381    -2.88017
 ion   95
    1    -1.12428    -0.00853     0.00219
    2    -0.00044    -5.55515     0.00533
    3     0.00033    -0.00620    -2.88816
 ion   96
    1    -1.12632     0.00385     0.00315
    2    -0.00492    -5.52838     0.02903
    3    -0.00234     0.00133    -2.90530
 ion   97
    1    -1.11977    -0.00445     0.00299
    2     0.00343    -5.53321     0.03526
    3    -0.00270     0.00376    -2.88016
 ion   98
    1    -1.12429     0.00852    -0.00222
    2     0.00046    -5.55509     0.00540
    3    -0.00030    -0.00620    -2.88816
 ion   99
    1    -1.12631    -0.00387    -0.00319
    2     0.00492    -5.52844     0.02902
    3     0.00236     0.00135    -2.90531
 ion  100
    1    -5.53620    -0.00088     0.00405
    2     0.01592    -1.11576     0.00779
    3     0.02069     0.00199    -2.90533
 ion  101
    1    -5.53536     0.00412     0.00145
    2     0.01039    -1.12574     0.00141
    3    -0.00003     0.00435    -2.89119
 ion  102
    1    -5.53552    -0.00148    -0.00252
    2     0.00620    -1.12802     0.00341
    3    -0.02094    -0.00017    -2.88772
 ion  103
    1    -5.45128    -0.00001    -0.00004
    2    -0.00001    -1.12198     0.05476
    3    -0.00000     0.02002    -2.89701
 ion  104
    1    -5.58291    -0.00001     0.00002
    2    -0.00003    -1.10993     0.12666
    3     0.00001     0.18265    -2.78749
 ion  105
    1    -5.61621    -0.00003     0.00004
    2    -0.00001    -1.11398     0.03035
    3    -0.00001     0.01662    -2.90171
 ion  106
    1    -5.53624     0.00092    -0.00406
    2    -0.01597    -1.11578     0.00782
    3    -0.02070     0.00197    -2.90535
 ion  107
    1    -5.53534    -0.00408    -0.00145
    2    -0.01039    -1.12576     0.00139
    3     0.00004     0.00437    -2.89120
 ion  108
    1    -5.53548     0.00154     0.00249
    2    -0.00617    -1.12803     0.00341
    3     0.02089    -0.00015    -2.88772


--------------------------------------------------------------------------------------------------------


     LOOP+:  cpu time   1777.4188: real time   1809.0258
    4ORBIT:  cpu time      0.0000: real time      0.0000

 total amount of memory used by VASP MPI-rank0   266724. kBytes
=======================================================================

   base      :      30000. kBytes
   nonlr-proj:      19555. kBytes
   fftplans  :      10927. kBytes
   grid      :      23181. kBytes
   one-center:       1679. kBytes
   wavefun   :     181382. kBytes



 General timing and accounting informations for this job:
 ========================================================

                  Total CPU time used (sec):     1787.367
                            User time (sec):     1759.384
                          System time (sec):       27.983
                         Elapsed time (sec):     1827.951

                   Maximum memory used (kb):     1090000.
                   Average memory used (kb):          N/A

                          Minor page faults:       831016
                          Major page faults:           24
                 Voluntary context switches:       104933
