 vasp.6.3.0 20Jan22 (build Mar 29 2022 16:24:06) complex

 executed on             Bridges2 date 2023.01.10  17:42:35
 running on   32 total cores
 distrk:  each k-point on    4 cores,    8 groups
 distr:  one band on NCORE=   1 cores,    4 groups


--------------------------------------------------------------------------------------------------------


 INCAR:
   ICHARG = 2
   LWAVE = .FALSE.
   LCHARG = .FALSE.
   LVTOT = .FALSE.
   NCORE = 1
   KPAR = 8
   EDIFF = 1E-7
   NELM = 80
   PREC = Normal
   LREAL = Auto
   NELMIN = 4
   ENCUT = 400.0 eV
   ISPIN = 1
   ISMEAR = 0
   SIGMA = 0.10
   NSW = 0
   LEPSILON = .TRUE.
   LPEAD = .TRUE.
   ISYM = 0

 POTCAR:    PAW_PBE Ti_pv 07Sep2000
 POTCAR:    PAW_PBE O 08Apr2002
 -----------------------------------------------------------------------------
|                                                                             |
|           W    W    AA    RRRRR   N    N  II  N    N   GGGG   !!!           |
|           W    W   A  A   R    R  NN   N  II  NN   N  G    G  !!!           |
|           W    W  A    A  R    R  N N  N  II  N N  N  G       !!!           |
|           W WW W  AAAAAA  RRRRR   N  N N  II  N  N N  G  GGG   !            |
|           WW  WW  A    A  R   R   N   NN  II  N   NN  G    G                |
|           W    W  A    A  R    R  N    N  II  N    N   GGGG   !!!           |
|                                                                             |
|     For optimal performance we recommend to set                             |
|       NCORE = 2 up to number-of-cores-per-socket                            |
|     NCORE specifies how many cores store one orbital (NPAR=cpu/NCORE).      |
|     This setting can greatly improve the performance of VASP for DFT.       |
|     The default, NCORE=1 might be grossly inefficient on modern             |
|     multi-core architectures or massively parallel machines. Do your        |
|     own testing! More info at https://www.vasp.at/wiki/index.php/NCORE      |
|     Unfortunately you need to use the default for GW and RPA                |
|     calculations (for HF NCORE is supported but not extensively tested      |
|     yet).                                                                   |
|                                                                             |
 -----------------------------------------------------------------------------

 POTCAR:    PAW_PBE Ti_pv 07Sep2000
   VRHFIN =Ti: d3 s1
   LEXCH  = PE
   EATOM  =  1042.5995 eV,   76.6289 Ry

   TITEL  = PAW_PBE Ti_pv 07Sep2000
   LULTRA =        F    use ultrasoft PP ?
   IUNSCR =        1    unscreen: 0-lin 1-nonlin 2-no
   RPACOR =    2.200    partial core radius
   POMASS =   47.880; ZVAL   =   10.000    mass and valenz
   RCORE  =    2.500    outmost cutoff radius
   RWIGS  =    2.500; RWIGS  =    1.323    wigner-seitz radius (au A)
   ENMAX  =  222.335; ENMIN  =  166.751 eV
   RCLOC  =    1.701    cutoff for local pot
   LCOR   =        T    correct aug charges
   LPAW   =        T    paw PP
   EAUG   =  482.848
   DEXC   =    0.000
   RMAX   =    2.564    core radius for proj-oper
   RAUG   =    1.300    factor for augmentation sphere
   RDEP   =    2.538    radius for radial grids
   RDEPT  =    1.952    core radius for aug-charge

   Atomic configuration
    8 entries
     n  l   j            E        occ.
     1  0  0.50     -4865.3608   2.0000
     2  0  0.50      -533.1368   2.0000
     2  1  1.50      -440.5031   6.0000
     3  0  0.50       -59.3186   2.0000
     3  1  1.50       -35.7012   6.0000
     3  2  2.50        -1.9157   3.0000
     4  0  0.50        -3.7291   1.0000
     4  3  2.50        -1.3606   0.0000
   Description
     l       E           TYP  RCUT    TYP  RCUT
     1    -35.7012140     23  2.300
     1     -1.3605826     23  2.300
     2     -1.9156996     23  2.500
     2     -0.4063033     23  2.500
     0     -3.7290856     23  2.500
     0     20.4087390     23  2.500
  local pseudopotential read in
  partial core-charges read in
  partial kinetic energy density read in
  atomic valenz-charges read in
  non local Contribution for L=           1  read in
    real space projection operators read in
  non local Contribution for L=           1  read in
    real space projection operators read in
  non local Contribution for L=           2  read in
    real space projection operators read in
  non local Contribution for L=           2  read in
    real space projection operators read in
  non local Contribution for L=           0  read in
    real space projection operators read in
  non local Contribution for L=           0  read in
    real space projection operators read in
    PAW grid and wavefunctions read in

   number of l-projection  operators is LMAX  =           6
   number of lm-projection operators is LMMAX =          18

 POTCAR:    PAW_PBE O 08Apr2002
   VRHFIN =O: s2p4
   LEXCH  = PE
   EATOM  =   432.3788 eV,   31.7789 Ry

   TITEL  = PAW_PBE O 08Apr2002
   LULTRA =        F    use ultrasoft PP ?
   IUNSCR =        1    unscreen: 0-lin 1-nonlin 2-no
   RPACOR =    1.200    partial core radius
   POMASS =   16.000; ZVAL   =    6.000    mass and valenz
   RCORE  =    1.520    outmost cutoff radius
   RWIGS  =    1.550; RWIGS  =    0.820    wigner-seitz radius (au A)
   ENMAX  =  400.000; ENMIN  =  300.000 eV
   ICORE  =        2    local potential
   LCOR   =        T    correct aug charges
   LPAW   =        T    paw PP
   EAUG   =  605.392
   DEXC   =    0.000
   RMAX   =    1.553    core radius for proj-oper
   RAUG   =    1.300    factor for augmentation sphere
   RDEP   =    1.550    radius for radial grids
   RDEPT  =    1.329    core radius for aug-charge

   Atomic configuration
    4 entries
     n  l   j            E        occ.
     1  0  0.50      -514.6923   2.0000
     2  0  0.50       -23.9615   2.0000
     2  1  0.50        -9.0305   4.0000
     3  2  1.50        -9.5241   0.0000
   Description
     l       E           TYP  RCUT    TYP  RCUT
     0    -23.9615318     23  1.200
     0     -9.5240782     23  1.200
     1     -9.0304911     23  1.520
     1      8.1634956     23  1.520
     2     -9.5240782      7  1.500
  local pseudopotential read in
  partial core-charges read in
  partial kinetic energy density read in
  kinetic energy density of atom read in
  atomic valenz-charges read in
  non local Contribution for L=           0  read in
    real space projection operators read in
  non local Contribution for L=           0  read in
    real space projection operators read in
  non local Contribution for L=           1  read in
    real space projection operators read in
  non local Contribution for L=           1  read in
    real space projection operators read in
    PAW grid and wavefunctions read in

   number of l-projection  operators is LMAX  =           4
   number of lm-projection operators is LMMAX =           8

 Optimization of the real space projectors (new method)

 maximal supplied QI-value         = 15.12
 optimisation between [QCUT,QGAM] = [ 10.13, 20.41] = [ 28.73,116.64] Ry
 Optimized for a Real-space Cutoff    1.51 Angstroem

   l    n(q)    QCUT    max X(q) W(low)/X(q) W(high)/X(q)  e(spline)
   1      9    10.129     4.216    0.12E-04    0.72E-04    0.60E-07
   1      9    10.129     5.422    0.84E-04    0.21E-03    0.15E-06
   2      8    10.129    72.084    0.33E-03    0.35E-04    0.17E-06
   2      8    10.129    65.965    0.33E-03    0.37E-04    0.17E-06
   0      9    10.129    41.531    0.17E-03    0.19E-03    0.81E-07
   0      9    10.129    16.290    0.12E-03    0.14E-03    0.64E-07
 Optimization of the real space projectors (new method)

 maximal supplied QI-value         = 24.76
 optimisation between [QCUT,QGAM] = [ 10.15, 20.30] = [ 28.85,115.39] Ry
 Optimized for a Real-space Cutoff    1.38 Angstroem

   l    n(q)    QCUT    max X(q) W(low)/X(q) W(high)/X(q)  e(spline)
   0      8    10.150    20.381    0.22E-03    0.32E-03    0.29E-06
   0      8    10.150    15.268    0.23E-03    0.35E-03    0.30E-06
   1      8    10.150     5.964    0.46E-03    0.53E-03    0.21E-06
   1      8    10.150     5.382    0.38E-03    0.45E-03    0.19E-06
  PAW_PBE Ti_pv 07Sep2000               :
 energy of atom  1       EATOM=-1042.5995
 kinetic energy error for atom=    0.0037 (will be added to EATOM!!)
  PAW_PBE O 08Apr2002                   :
 energy of atom  2       EATOM= -432.3788
 kinetic energy error for atom=    0.1156 (will be added to EATOM!!)


 POSCAR: Ti4 O8
  positions in cartesian coordinates
  No initial velocities read in
 exchange correlation table for  LEXCH =        8
   RHO(1)=    0.500       N(1)  =     2000
   RHO(2)=  100.500       N(2)  =     4000



--------------------------------------------------------------------------------------------------------


 ion  position               nearest neighbor table
   1  0.167  0.167  0.500-  56 1.94  55 1.94  40 1.94  37 1.94 100 2.00  46 2.00  31 3.06  28 3.06
                            11 3.06  10 3.06
   2  0.167  0.500  0.500-  56 1.94  41 1.94  38 1.94  57 1.94 101 2.00  47 2.00  11 3.06  32 3.06
                            29 3.06  12 3.06
   3  0.167  0.833  0.500-  57 1.94  42 1.94  39 1.94  55 1.94 102 2.00  48 2.00  12 3.06  33 3.06
                            30 3.06  10 3.06
   4  0.500  0.167  0.500-  40 1.94  59 1.94  58 1.94  43 1.94 103 2.00  49 2.00  31 3.06  14 3.06
                            13 3.06  34 3.06
   5  0.500  0.518  0.500-  60 1.74  41 1.95  44 1.95 104 2.01  50 2.01  59 2.13  15 2.94  32 3.07
                            35 3.07
   6  0.500  0.833  0.500-  60 1.94  42 1.94  58 1.94  45 1.94 105 2.00  51 2.00  15 3.06  33 3.06
                            13 3.06  36 3.06
   7  0.833  0.167  0.500-  43 1.94  62 1.94  61 1.94  37 1.94 106 2.00  52 2.00  34 3.06  17 3.06
                            16 3.06  28 3.06
   8  0.833  0.500  0.500-  44 1.94  62 1.94  63 1.94  38 1.94 107 2.00  53 2.00  35 3.06  17 3.06
                            29 3.06  18 3.06
   9  0.833  0.833  0.500-  63 1.94  45 1.94  61 1.94  39 1.94 108 2.00  54 2.00  36 3.06  18 3.06
                            30 3.06  16 3.06
  10  0.167  0.000  0.750-  67 1.94  64 1.94  46 1.94  48 1.94  73 2.00  55 2.00  22 3.06  19 3.06
                             1 3.06   3 3.06
  11  0.167  0.333  0.750-  47 1.94  46 1.94  68 1.94  65 1.94  74 2.00  56 2.00   2 3.06  23 3.06
                            20 3.06   1 3.06
  12  0.167  0.667  0.750-  48 1.94  69 1.94  66 1.94  47 1.94  75 2.00  57 2.00   3 3.06  24 3.06
                            21 3.06   2 3.06
  13  0.500  0.000  0.750-  67 1.94  49 1.94  51 1.94  70 1.94  76 2.00  58 2.00  22 3.06   4 3.06
                            25 3.06   6 3.06
  14  0.500  0.333  0.750-  50 1.94  68 1.94  49 1.94  71 1.94  77 2.00  59 2.00  23 3.06   4 3.06
                            26 3.06
  15  0.500  0.667  0.750-  51 1.94  69 1.94  50 1.94  72 1.94  78 2.00  60 2.00   5 2.94   6 3.06
                            24 3.06  27 3.06
  16  0.833  0.000  0.750-  70 1.94  52 1.94  64 1.94  54 1.94  79 2.00  61 2.00  25 3.06   7 3.06
                            19 3.06   9 3.06
  17  0.833  0.333  0.750-  71 1.94  53 1.94  52 1.94  65 1.94  80 2.00  62 2.00  26 3.06   8 3.06
                             7 3.06  20 3.06
  18  0.833  0.667  0.750-  54 1.94  72 1.94  66 1.94  53 1.94  81 2.00  63 2.00  27 3.06   9 3.06
                            21 3.06   8 3.06
  19  0.000  0.000  0.000-  73 1.94  91 1.94  79 1.94  93 1.94  82 2.00  64 2.00  10 3.06  28 3.06
                            16 3.06  30 3.06
  20  0.000  0.333  0.000-  92 1.94  74 1.94  91 1.94  80 1.94  83 2.00  65 2.00  29 3.06  11 3.06
                            28 3.06  17 3.06
  21  0.000  0.667  0.000-  93 1.94  75 1.94  81 1.94  92 1.94  84 2.00  66 2.00  30 3.06  12 3.06
                            18 3.06  29 3.06
  22  0.333  0.000  0.000-  76 1.94  73 1.94  94 1.94  96 1.94  85 2.00  67 2.00  13 3.06  10 3.06
                            31 3.06  33 3.06
  23  0.333  0.333  0.000-  77 1.94  95 1.94  74 1.94  94 1.94  86 2.00  68 2.00  14 3.06  32 3.06
                            11 3.06  31 3.06
  24  0.333  0.667  0.000-  96 1.94  78 1.94  75 1.94  95 1.94  87 2.00  69 2.00  33 3.06  15 3.06
                            12 3.06  32 3.06
  25  0.667  0.000  0.000-  79 1.94  97 1.94  76 1.94  99 1.94  88 2.00  70 2.00  16 3.06  34 3.06
                            13 3.06  36 3.06
  26  0.667  0.333  0.000-  80 1.94  98 1.94  97 1.94  77 1.94  89 2.00  71 2.00  17 3.06  35 3.06
                            34 3.06  14 3.06
  27  0.667  0.667  0.000-  81 1.94  99 1.94  78 1.94  98 1.94  90 2.00  72 2.00  18 3.06  36 3.06
                            15 3.06  35 3.06
  28  0.000  0.167  0.250-  83 1.94  82 1.94 100 1.94 106 1.94  37 2.00  91 2.00   1 3.06  20 3.06
                            19 3.06   7 3.06
  29  0.000  0.500  0.250-  83 1.94 101 1.94  84 1.94 107 1.94  38 2.00  92 2.00  20 3.06   2 3.06
                             8 3.06  21 3.06
  30  0.000  0.833  0.250-  84 1.94 102 1.94  82 1.94 108 1.94  39 2.00  93 2.00  21 3.06   3 3.06
                             9 3.06  19 3.06
  31  0.333  0.167  0.250- 103 1.94  86 1.94  85 1.94 100 1.94  40 2.00  94 2.00   4 3.06   1 3.06
                            23 3.06  22 3.06
  32  0.333  0.500  0.250-  86 1.94 104 1.94 101 1.94  87 1.94  41 2.00  95 2.00  23 3.06   2 3.06
                            24 3.06   5 3.07
  33  0.333  0.833  0.250-  87 1.94 105 1.94 102 1.94  85 1.94  42 2.00  96 2.00  24 3.06   6 3.06
                             3 3.06  22 3.06
  34  0.667  0.167  0.250- 106 1.94  89 1.94  88 1.94 103 1.94  43 2.00  97 2.00   7 3.06  26 3.06
                            25 3.06   4 3.06
  35  0.667  0.500  0.250- 107 1.94  89 1.94  90 1.94 104 1.94  44 2.00  98 2.00   8 3.06  26 3.06
                            27 3.06   5 3.07
  36  0.667  0.833  0.250-  90 1.94 108 1.94  88 1.94 105 1.94  45 2.00  99 2.00   9 3.06  27 3.06
                            25 3.06   6 3.06
  37  0.000  0.167  0.458-   1 1.94   7 1.94  28 2.00
  38  0.000  0.500  0.458-   2 1.94   8 1.94  29 2.00
  39  0.000  0.833  0.458-   3 1.94   9 1.94  30 2.00
  40  0.333  0.167  0.458-   4 1.94   1 1.94  31 2.00
  41  0.333  0.500  0.458-   2 1.94   5 1.95  32 2.00
  42  0.333  0.833  0.458-   6 1.94   3 1.94  33 2.00
  43  0.667  0.167  0.458-   7 1.94   4 1.94  34 2.00
  44  0.667  0.500  0.458-   8 1.94   5 1.95  35 2.00
  45  0.667  0.833  0.458-   9 1.94   6 1.94  36 2.00
  46  0.167  0.167  0.708-  11 1.94  10 1.94   1 2.00
  47  0.167  0.500  0.708-  11 1.94  12 1.94   2 2.00
  48  0.167  0.833  0.708-  12 1.94  10 1.94   3 2.00
  49  0.500  0.167  0.708-  14 1.94  13 1.94   4 2.00
  50  0.500  0.500  0.708-  14 1.94  15 1.94   5 2.01
  51  0.500  0.833  0.708-  15 1.94  13 1.94   6 2.00
  52  0.833  0.167  0.708-  17 1.94  16 1.94   7 2.00
  53  0.833  0.500  0.708-  17 1.94  18 1.94   8 2.00
  54  0.833  0.833  0.708-  18 1.94  16 1.94   9 2.00
  55  0.167  0.000  0.542-   1 1.94   3 1.94  10 2.00
  56  0.167  0.333  0.542-   2 1.94   1 1.94  11 2.00
  57  0.167  0.667  0.542-   3 1.94   2 1.94  12 2.00
  58  0.500  0.000  0.542-   4 1.94   6 1.94  13 2.00
  59  0.500  0.333  0.542-   4 1.94  14 2.00   5 2.13
  60  0.500  0.667  0.542-   5 1.74   6 1.94  15 2.00
  61  0.833  0.000  0.542-   7 1.94   9 1.94  16 2.00
  62  0.833  0.333  0.542-   8 1.94   7 1.94  17 2.00
  63  0.833  0.667  0.542-   9 1.94   8 1.94  18 2.00
  64  0.000  0.000  0.792-  10 1.94  16 1.94  19 2.00
  65  0.000  0.333  0.792-  11 1.94  17 1.94  20 2.00
  66  0.000  0.667  0.792-  12 1.94  18 1.94  21 2.00
  67  0.333  0.000  0.792-  13 1.94  10 1.94  22 2.00
  68  0.333  0.333  0.792-  14 1.94  11 1.94  23 2.00
  69  0.333  0.667  0.792-  15 1.94  12 1.94  24 2.00
  70  0.667  0.000  0.792-  16 1.94  13 1.94  25 2.00
  71  0.667  0.333  0.792-  17 1.94  14 1.94  26 2.00
  72  0.667  0.667  0.792-  18 1.94  15 1.94  27 2.00
  73  0.167  0.000  0.958-  22 1.94  19 1.94  10 2.00
  74  0.167  0.333  0.958-  23 1.94  20 1.94  11 2.00
  75  0.167  0.667  0.958-  24 1.94  21 1.94  12 2.00
  76  0.500  0.000  0.958-  22 1.94  25 1.94  13 2.00
  77  0.500  0.333  0.958-  23 1.94  26 1.94  14 2.00
  78  0.500  0.667  0.958-  24 1.94  27 1.94  15 2.00
  79  0.833  0.000  0.958-  25 1.94  19 1.94  16 2.00
  80  0.833  0.333  0.958-  26 1.94  20 1.94  17 2.00
  81  0.833  0.667  0.958-  27 1.94  21 1.94  18 2.00
  82  0.000  0.000  0.208-  28 1.94  30 1.94  19 2.00
  83  0.000  0.333  0.208-  29 1.94  28 1.94  20 2.00
  84  0.000  0.667  0.208-  30 1.94  29 1.94  21 2.00
  85  0.333  0.000  0.208-  31 1.94  33 1.94  22 2.00
  86  0.333  0.333  0.208-  32 1.94  31 1.94  23 2.00
  87  0.333  0.667  0.208-  33 1.94  32 1.94  24 2.00
  88  0.667  0.000  0.208-  34 1.94  36 1.94  25 2.00
  89  0.667  0.333  0.208-  35 1.94  34 1.94  26 2.00
  90  0.667  0.667  0.208-  36 1.94  35 1.94  27 2.00
  91  0.000  0.167  0.042-  20 1.94  19 1.94  28 2.00
  92  0.000  0.500  0.042-  20 1.94  21 1.94  29 2.00
  93  0.000  0.833  0.042-  21 1.94  19 1.94  30 2.00
  94  0.333  0.167  0.042-  23 1.94  22 1.94  31 2.00
  95  0.333  0.500  0.042-  23 1.94  24 1.94  32 2.00
  96  0.333  0.833  0.042-  24 1.94  22 1.94  33 2.00
  97  0.667  0.167  0.042-  26 1.94  25 1.94  34 2.00
  98  0.667  0.500  0.042-  26 1.94  27 1.94  35 2.00
  99  0.667  0.833  0.042-  27 1.94  25 1.94  36 2.00
 100  0.167  0.167  0.292-  31 1.94  28 1.94   1 2.00
 101  0.167  0.500  0.292-  32 1.94  29 1.94   2 2.00
 102  0.167  0.833  0.292-  33 1.94  30 1.94   3 2.00
 103  0.500  0.167  0.292-  31 1.94  34 1.94   4 2.00
 104  0.500  0.500  0.292-  32 1.94  35 1.94   5 2.01
 105  0.500  0.833  0.292-  33 1.94  36 1.94   6 2.00
 106  0.833  0.167  0.292-  34 1.94  28 1.94   7 2.00
 107  0.833  0.500  0.292-  35 1.94  29 1.94   8 2.00
 108  0.833  0.833  0.292-  36 1.94  30 1.94   9 2.00


IMPORTANT INFORMATION: All symmetrisations will be switched off!
NOSYMM: (Re-)initialisation of all symmetry stuff for point group C_1.


----------------------------------------------------------------------------------------

                                     Primitive cell

  volume of cell :    1243.1447

  direct lattice vectors                    reciprocal lattice vectors
    11.376843452  0.000000000  0.000000000     0.087897843  0.000000000  0.000000000
     0.000000000 11.376843452  0.000000000     0.000000000  0.087897843  0.000000000
     0.000000000  0.000000000  9.604574204     0.000000000  0.000000000  0.104117057

  length of vectors
    11.376843452 11.376843452  9.604574204     0.087897843  0.087897843  0.104117057

  position of ions in fractional coordinates (direct lattice)
     0.166666672  0.166666672  0.500000000
     0.166666672  0.500000000  0.500000000
     0.166666672  0.833333313  0.500000000
     0.500000000  0.166666672  0.500000000
     0.500000000  0.517579569  0.500000000
     0.500000000  0.833333313  0.500000000
     0.833333313  0.166666672  0.500000000
     0.833333313  0.500000000  0.500000000
     0.833333313  0.833333313  0.500000000
     0.166666672  0.000000000  0.750000000
     0.166666672  0.333333343  0.750000000
     0.166666672  0.666666687  0.750000000
     0.500000000  0.000000000  0.750000000
     0.500000000  0.333333343  0.750000000
     0.500000000  0.666666687  0.750000000
     0.833333313  0.000000000  0.750000000
     0.833333313  0.333333343  0.750000000
     0.833333313  0.666666687  0.750000000
     0.000000000  0.000000000  0.000000000
     0.000000000  0.333333343  0.000000000
     0.000000000  0.666666687  0.000000000
     0.333333343  0.000000000  0.000000000
     0.333333343  0.333333343  0.000000000
     0.333333343  0.666666687  0.000000000
     0.666666687  0.000000000  0.000000000
     0.666666687  0.333333343  0.000000000
     0.666666687  0.666666687  0.000000000
     0.000000000  0.166666672  0.250000000
     0.000000000  0.500000000  0.250000000
     0.000000000  0.833333313  0.250000000
     0.333333343  0.166666672  0.250000000
     0.333333343  0.500000000  0.250000000
     0.333333343  0.833333313  0.250000000
     0.666666687  0.166666672  0.250000000
     0.666666687  0.500000000  0.250000000
     0.666666687  0.833333313  0.250000000
     0.000000000  0.166666672  0.457898587
     0.000000000  0.500000000  0.457898587
     0.000000000  0.833333313  0.457898587
     0.333333343  0.166666672  0.457898587
     0.333333343  0.500000000  0.457898587
     0.333333343  0.833333313  0.457898587
     0.666666687  0.166666672  0.457898587
     0.666666687  0.500000000  0.457898587
     0.666666687  0.833333313  0.457898587
     0.166666672  0.166666672  0.707898617
     0.166666672  0.500000000  0.707898617
     0.166666672  0.833333313  0.707898617
     0.500000000  0.166666672  0.707898617
     0.500000000  0.500000000  0.707898617
     0.500000000  0.833333313  0.707898617
     0.833333313  0.166666672  0.707898617
     0.833333313  0.500000000  0.707898617
     0.833333313  0.833333313  0.707898617
     0.166666672  0.000000000  0.542101383
     0.166666672  0.333333343  0.542101383
     0.166666672  0.666666687  0.542101383
     0.500000000  0.000000000  0.542101383
     0.500000000  0.333333343  0.542101383
     0.500000000  0.666666687  0.542101383
     0.833333313  0.000000000  0.542101383
     0.833333313  0.333333343  0.542101383
     0.833333313  0.666666687  0.542101383
     0.000000000  0.000000000  0.792101383
     0.000000000  0.333333343  0.792101383
     0.000000000  0.666666687  0.792101383
     0.333333343  0.000000000  0.792101383
     0.333333343  0.333333343  0.792101383
     0.333333343  0.666666687  0.792101383
     0.666666687  0.000000000  0.792101383
     0.666666687  0.333333343  0.792101383
     0.666666687  0.666666687  0.792101383
     0.166666672  0.000000000  0.957898617
     0.166666672  0.333333343  0.957898617
     0.166666672  0.666666687  0.957898617
     0.500000000  0.000000000  0.957898617
     0.500000000  0.333333343  0.957898617
     0.500000000  0.666666687  0.957898617
     0.833333313  0.000000000  0.957898617
     0.833333313  0.333333343  0.957898617
     0.833333313  0.666666687  0.957898617
     0.000000000  0.000000000  0.207898602
     0.000000000  0.333333343  0.207898602
     0.000000000  0.666666687  0.207898602
     0.333333343  0.000000000  0.207898602
     0.333333343  0.333333343  0.207898602
     0.333333343  0.666666687  0.207898602
     0.666666687  0.000000000  0.207898602
     0.666666687  0.333333343  0.207898602
     0.666666687  0.666666687  0.207898602
     0.000000000  0.166666672  0.042101406
     0.000000000  0.500000000  0.042101406
     0.000000000  0.833333313  0.042101406
     0.333333343  0.166666672  0.042101406
     0.333333343  0.500000000  0.042101406
     0.333333343  0.833333313  0.042101406
     0.666666687  0.166666672  0.042101406
     0.666666687  0.500000000  0.042101406
     0.666666687  0.833333313  0.042101406
     0.166666672  0.166666672  0.292101413
     0.166666672  0.500000000  0.292101413
     0.166666672  0.833333313  0.292101413
     0.500000000  0.166666672  0.292101413
     0.500000000  0.500000000  0.292101413
     0.500000000  0.833333313  0.292101413
     0.833333313  0.166666672  0.292101413
     0.833333313  0.500000000  0.292101413
     0.833333313  0.833333313  0.292101413

  ion indices of the primitive-cell ions
   primitive index   ion index
                 1           1
                 2           2
                 3           3
                 4           4
                 5           5
                 6           6
                 7           7
                 8           8
                 9           9
                10          10
                11          11
                12          12
                13          13
                14          14
                15          15
                16          16
                17          17
                18          18
                19          19
                20          20
                21          21
                22          22
                23          23
                24          24
                25          25
                26          26
                27          27
                28          28
                29          29
                30          30
                31          31
                32          32
                33          33
                34          34
                35          35
                36          36
                37          37
                38          38
                39          39
                40          40
                41          41
                42          42
                43          43
                44          44
                45          45
                46          46
                47          47
                48          48
                49          49
                50          50
                51          51
                52          52
                53          53
                54          54
                55          55
                56          56
                57          57
                58          58
                59          59
                60          60
                61          61
                62          62
                63          63
                64          64
                65          65
                66          66
                67          67
                68          68
                69          69
                70          70
                71          71
                72          72
                73          73
                74          74
                75          75
                76          76
                77          77
                78          78
                79          79
                80          80
                81          81
                82          82
                83          83
                84          84
                85          85
                86          86
                87          87
                88          88
                89          89
                90          90
                91          91
                92          92
                93          93
                94          94
                95          95
                96          96
                97          97
                98          98
                99          99
               100         100
               101         101
               102         102
               103         103
               104         104
               105         105
               106         106
               107         107
               108         108

----------------------------------------------------------------------------------------



 KPOINTS: K-Points

Automatic generation of k-mesh.
 Grid dimensions read from file:
 generate k-points for:    2    2    2

 Generating k-lattice:

  Cartesian coordinates                     Fractional coordinates (reciprocal lattice)
     0.043948922  0.000000000  0.000000000     0.500000000  0.000000000  0.000000000
     0.000000000  0.043948922  0.000000000     0.000000000  0.500000000  0.000000000
     0.000000000  0.000000000  0.052058529     0.000000000  0.000000000  0.500000000

  Length of vectors
     0.043948922  0.043948922  0.052058529

  Shift w.r.t. Gamma in fractional coordinates (k-lattice)
     0.500000000  0.500000000  0.500000000


 Subroutine IBZKPT returns following result:
 ===========================================

 Found      4 irreducible k-points:

 Following reciprocal coordinates:
            Coordinates               Weight
  0.250000  0.250000  0.250000      2.000000
 -0.250000  0.250000  0.250000      2.000000
 -0.250000 -0.250000  0.250000      2.000000
  0.250000 -0.250000  0.250000      2.000000

 Following cartesian coordinates:
            Coordinates               Weight
  0.021974  0.021974  0.026029      2.000000
 -0.021974  0.021974  0.026029      2.000000
 -0.021974 -0.021974  0.026029      2.000000
  0.021974 -0.021974  0.026029      2.000000


 Subroutine IBZKPT_HF returns following result:
 ==============================================

 Found      8 k-points in 1st BZ
 the following      8 k-points will be used (e.g. in the exchange kernel)
 Following reciprocal coordinates:   # in IRBZ
  0.250000  0.250000  0.250000    0.12500000   1 t-inv F
 -0.250000  0.250000  0.250000    0.12500000   2 t-inv F
 -0.250000 -0.250000  0.250000    0.12500000   3 t-inv F
  0.250000 -0.250000  0.250000    0.12500000   4 t-inv F
 -0.250000 -0.250000 -0.250000    0.12500000   1 t-inv T
  0.250000 -0.250000 -0.250000    0.12500000   2 t-inv T
  0.250000  0.250000 -0.250000    0.12500000   3 t-inv T
 -0.250000  0.250000 -0.250000    0.12500000   4 t-inv T


--------------------------------------------------------------------------------------------------------




 Dimension of arrays:
   k-points           NKPTS =      4   k-points in BZ     NKDIM =      4   number of bands    NBANDS=    476
   number of dos      NEDOS =    301   number of ions     NIONS =    108
   non local maximal  LDIM  =      6   non local SUM 2l+1 LMDIM =     18
   total plane-waves  NPLWV = 150528
   max r-space proj   IRMAX =   1791   max aug-charges    IRDMAX=   4900
   dimension x,y,z NGX =    56 NGY =   56 NGZ =   48
   dimension x,y,z NGXF=   112 NGYF=  112 NGZF=   96
   support grid    NGXF=   112 NGYF=  112 NGZF=   96
   ions per type =              36  72
   NGX,Y,Z   is equivalent  to a cutoff of   8.18,  8.18,  8.31 a.u.
   NGXF,Y,Z  is equivalent  to a cutoff of  16.37, 16.37, 16.62 a.u.

 SYSTEM =  unknown system
 POSCAR =  Ti4 O8

 Startparameter for this run:
   NWRITE =      2    write-flag & timer
   PREC   = normal    normal or accurate (medium, high low for compatibility)
   ISTART =      0    job   : 0-new  1-cont  2-samecut
   ICHARG =      2    charge: 1-file 2-atom 10-const
   ISPIN  =      1    spin polarized calculation?
   LNONCOLLINEAR =      F non collinear calculations
   LSORBIT =      F    spin-orbit coupling
   INIWAV =      1    electr: 0-lowe 1-rand  2-diag
   LASPH  =      F    aspherical Exc in radial PAW
 Electronic Relaxation 1
   ENCUT  =  400.0 eV  29.40 Ry    5.42 a.u.  18.55 18.55 15.66*2*pi/ulx,y,z
   ENINI  =  400.0     initial cutoff
   ENAUG  =  605.4 eV  augmentation charge cutoff
   NELM   =     80;   NELMIN=  4; NELMDL= -5     # of ELM steps
   EDIFF  = 0.1E-06   stopping-criterion for ELM
   LREAL  =      T    real-space projection
   NLSPLINE    = F    spline interpolate recip. space projectors
   LCOMPAT=      F    compatible to vasp.4.4
   GGA_COMPAT  = T    GGA compatible to vasp.4.4-vasp.4.6
   LMAXPAW     = -100 max onsite density
   LMAXMIX     =    2 max onsite mixed and CHGCAR
   VOSKOWN=      0    Vosko Wilk Nusair interpolation
   ROPT   =   -0.00050  -0.00050
 Ionic relaxation
   EDIFFG = 0.1E-05   stopping-criterion for IOM
   NSW    =      0    number of steps for IOM
   NBLOCK =      1;   KBLOCK =      1    inner block; outer block
   IBRION =     -1    ionic relax: 0-MD 1-quasi-New 2-CG
   NFREE  =      0    steps in history (QN), initial steepest desc. (CG)
   ISIF   =      2    stress and relaxation
   IWAVPR =     10    prediction:  0-non 1-charg 2-wave 3-comb
   ISYM   =      0    0-nonsym 1-usesym 2-fastsym
   LCORR  =      T    Harris-Foulkes like correction to forces

   POTIM  = 0.5000    time-step for ionic-motion
   TEIN   =    0.0    initial temperature
   TEBEG  =    0.0;   TEEND  =   0.0 temperature during run
   SMASS  =  -3.00    Nose mass-parameter (am)
   estimated Nose-frequenzy (Omega)   =  0.10E-29 period in steps = 0.13E+47 mass=  -0.296E-26a.u.
   SCALEE = 1.0000    scale energy and forces
   NPACO  =    256;   APACO  = 10.0  distance and # of slots for P.C.
   PSTRESS=    0.0 pullay stress

  Mass of Ions in am
   POMASS =  47.88 16.00
  Ionic Valenz
   ZVAL   =  10.00  6.00
  Atomic Wigner-Seitz radii
   RWIGS  =  -1.00 -1.00
  virtual crystal weights
   VCA    =   1.00  1.00
   NELECT =     792.0000    total number of electrons
   NUPDOWN=      -1.0000    fix difference up-down

 DOS related values:
   EMIN   =  10.00;   EMAX   =-10.00  energy-range for DOS
   EFERMI =   0.00
   ISMEAR =     0;   SIGMA  =   0.10  broadening in eV -4-tet -1-fermi 0-gaus

 Electronic relaxation 2 (details)
   IALGO  =     38    algorithm
   LDIAG  =      T    sub-space diagonalisation (order eigenvalues)
   LSUBROT=      F    optimize rotation matrix (better conditioning)
   TURBO    =      0    0=normal 1=particle mesh
   IRESTART =      0    0=no restart 2=restart with 2 vectors
   NREBOOT  =      0    no. of reboots
   NMIN     =      0    reboot dimension
   EREF     =   0.00    reference energy to select bands
   IMIX   =      4    mixing-type and parameters
     AMIX     =   0.40;   BMIX     =  1.00
     AMIX_MAG =   1.60;   BMIX_MAG =  1.00
     AMIN     =   0.10
     WC   =   100.;   INIMIX=   1;  MIXPRE=   1;  MAXMIX= -45

 Intra band minimization:
   WEIMIN = 0.0000     energy-eigenvalue tresh-hold
   EBREAK =  0.53E-10  absolut break condition
   DEPER  =   0.30     relativ break condition

   TIME   =   0.40     timestep for ELM

  volume/ion in A,a.u.               =      11.51        77.68
  Fermi-wavevector in a.u.,A,eV,Ry     =   1.408670  2.662001 26.998745  1.984352
  Thomas-Fermi vector in A             =   2.530804

 Write flags
   LWAVE        =      F    write WAVECAR
   LDOWNSAMPLE  =      F    k-point downsampling of WAVECAR
   LCHARG       =      F    write CHGCAR
   LVTOT        =      F    write LOCPOT, total local potential
   LVHAR        =      F    write LOCPOT, Hartree potential only
   LELF         =      F    write electronic localiz. function (ELF)
   LORBIT       =      0    0 simple, 1 ext, 2 COOP (PROOUT), +10 PAW based schemes


 Dipole corrections
   LMONO  =      F    monopole corrections only (constant potential shift)
   LDIPOL =      F    correct potential (dipole corrections)
   IDIPOL =      0    1-x, 2-y, 3-z, 4-all directions
   EPSILON=  1.0000000 bulk dielectric constant

 Exchange correlation treatment:
   GGA     =    --    GGA type
   LEXCH   =     8    internal setting for exchange type
   LIBXC   =     F    Libxc
   VOSKOWN =     0    Vosko Wilk Nusair interpolation
   LHFCALC =     F    Hartree Fock is set to
   LHFONE  =     F    Hartree Fock one center treatment
   AEXX    =    0.0000 exact exchange contribution

 Linear response parameters
   LEPSILON=     T    determine dielectric tensor
   LRPA    =     F    only Hartree local field effects (RPA)
   LNABLA  =     F    use nabla operator in PAW spheres
   LVEL    =     F    velocity operator in full k-point grid
   CSHIFT  =0.1000    complex shift for real part using Kramers Kronig
   OMEGAMAX=  -1.0    maximum frequency
   DEG_THRESHOLD= 0.2000000E-02 threshold for treating states as degnerate
   RTIME   =   -0.100 relaxation time in fs
  (WPLASMAI=    0.000 imaginary part of plasma frequency in eV, 0.658/RTIME)
   DFIELD  = 0.0000000 0.0000000 0.0000000 field for delta impulse in time

  Optional k-point grid parameters
   LKPOINTS_OPT  =     F    use optional k-point grid
   KPOINTS_OPT_MODE=     1    mode for optional k-point grid

 Orbital magnetization related:
   ORBITALMAG=     F  switch on orbital magnetization
   LCHIMAG   =     F  perturbation theory with respect to B field
   DQ        =  0.001000  dq finite difference perturbation B field
   LLRAUG    =     F  two centre corrections for induced B field

 PEAD related settings:
   LPEAD      =     T    switch on PEAD
   IPEAD      =     4    finite difference order for dpsi/dk
   LCALCPOL   =     F    calculate macroscopic polarization
   LCALCEPS   =     F    calculate dielectric tensor
   EFIELD_PEAD=    0.0000    0.0000    0.0000
   SKIP_EDOTP =     F
   LRPA       =     F
   SKIP_SCF   =     F


--------------------------------------------------------------------------------------------------------


 Static calculation
 charge density and potential will be updated during run
 non-spin polarized calculation
 Variant of blocked Davidson
 Davidson routine will perform the subspace rotation
 perform sub-space diagonalisation
    after iterative eigenvector-optimisation
 modified Broyden-mixing scheme, WC =      100.0
 initial mixing is a Kerker type mixing with AMIX =  0.4000 and BMIX =      1.0000
 Hartree-type preconditioning will be used
 using additional bands           80
 real space projection scheme for non local part
 use partial core corrections
 calculate Harris-corrections to forces
   (improved forces if not selfconsistent)
 use gradient corrections
 use of overlap-Matrix (Vanderbilt PP)
 Gauss-broadening in eV      SIGMA  =   0.10


--------------------------------------------------------------------------------------------------------


  energy-cutoff  :      400.00
  volume of cell :     1243.14
      direct lattice vectors                 reciprocal lattice vectors
    11.376843452  0.000000000  0.000000000     0.087897843  0.000000000  0.000000000
     0.000000000 11.376843452  0.000000000     0.000000000  0.087897843  0.000000000
     0.000000000  0.000000000  9.604574204     0.000000000  0.000000000  0.104117057

  length of vectors
    11.376843452 11.376843452  9.604574204     0.087897843  0.087897843  0.104117057



 k-points in units of 2pi/SCALE and weight: K-Points
   0.02197446  0.02197446  0.02602926       0.250
  -0.02197446  0.02197446  0.02602926       0.250
  -0.02197446 -0.02197446  0.02602926       0.250
   0.02197446 -0.02197446  0.02602926       0.250

 k-points in reciprocal lattice and weights: K-Points
   0.25000000  0.25000000  0.25000000       0.250
  -0.25000000  0.25000000  0.25000000       0.250
  -0.25000000 -0.25000000  0.25000000       0.250
   0.25000000 -0.25000000  0.25000000       0.250

 position of ions in fractional coordinates (direct lattice)
   0.16666667  0.16666667  0.50000000
   0.16666667  0.50000000  0.50000000
   0.16666667  0.83333331  0.50000000
   0.50000000  0.16666667  0.50000000
   0.50000000  0.51757957  0.50000000
   0.50000000  0.83333331  0.50000000
   0.83333331  0.16666667  0.50000000
   0.83333331  0.50000000  0.50000000
   0.83333331  0.83333331  0.50000000
   0.16666667  0.00000000  0.75000000
   0.16666667  0.33333334  0.75000000
   0.16666667  0.66666669  0.75000000
   0.50000000  0.00000000  0.75000000
   0.50000000  0.33333334  0.75000000
   0.50000000  0.66666669  0.75000000
   0.83333331  0.00000000  0.75000000
   0.83333331  0.33333334  0.75000000
   0.83333331  0.66666669  0.75000000
   0.00000000  0.00000000  0.00000000
   0.00000000  0.33333334  0.00000000
   0.00000000  0.66666669  0.00000000
   0.33333334  0.00000000  0.00000000
   0.33333334  0.33333334  0.00000000
   0.33333334  0.66666669  0.00000000
   0.66666669  0.00000000  0.00000000
   0.66666669  0.33333334  0.00000000
   0.66666669  0.66666669  0.00000000
   0.00000000  0.16666667  0.25000000
   0.00000000  0.50000000  0.25000000
   0.00000000  0.83333331  0.25000000
   0.33333334  0.16666667  0.25000000
   0.33333334  0.50000000  0.25000000
   0.33333334  0.83333331  0.25000000
   0.66666669  0.16666667  0.25000000
   0.66666669  0.50000000  0.25000000
   0.66666669  0.83333331  0.25000000
   0.00000000  0.16666667  0.45789859
   0.00000000  0.50000000  0.45789859
   0.00000000  0.83333331  0.45789859
   0.33333334  0.16666667  0.45789859
   0.33333334  0.50000000  0.45789859
   0.33333334  0.83333331  0.45789859
   0.66666669  0.16666667  0.45789859
   0.66666669  0.50000000  0.45789859
   0.66666669  0.83333331  0.45789859
   0.16666667  0.16666667  0.70789862
   0.16666667  0.50000000  0.70789862
   0.16666667  0.83333331  0.70789862
   0.50000000  0.16666667  0.70789862
   0.50000000  0.50000000  0.70789862
   0.50000000  0.83333331  0.70789862
   0.83333331  0.16666667  0.70789862
   0.83333331  0.50000000  0.70789862
   0.83333331  0.83333331  0.70789862
   0.16666667  0.00000000  0.54210138
   0.16666667  0.33333334  0.54210138
   0.16666667  0.66666669  0.54210138
   0.50000000  0.00000000  0.54210138
   0.50000000  0.33333334  0.54210138
   0.50000000  0.66666669  0.54210138
   0.83333331  0.00000000  0.54210138
   0.83333331  0.33333334  0.54210138
   0.83333331  0.66666669  0.54210138
   0.00000000  0.00000000  0.79210138
   0.00000000  0.33333334  0.79210138
   0.00000000  0.66666669  0.79210138
   0.33333334  0.00000000  0.79210138
   0.33333334  0.33333334  0.79210138
   0.33333334  0.66666669  0.79210138
   0.66666669  0.00000000  0.79210138
   0.66666669  0.33333334  0.79210138
   0.66666669  0.66666669  0.79210138
   0.16666667  0.00000000  0.95789862
   0.16666667  0.33333334  0.95789862
   0.16666667  0.66666669  0.95789862
   0.50000000  0.00000000  0.95789862
   0.50000000  0.33333334  0.95789862
   0.50000000  0.66666669  0.95789862
   0.83333331  0.00000000  0.95789862
   0.83333331  0.33333334  0.95789862
   0.83333331  0.66666669  0.95789862
   0.00000000  0.00000000  0.20789860
   0.00000000  0.33333334  0.20789860
   0.00000000  0.66666669  0.20789860
   0.33333334  0.00000000  0.20789860
   0.33333334  0.33333334  0.20789860
   0.33333334  0.66666669  0.20789860
   0.66666669  0.00000000  0.20789860
   0.66666669  0.33333334  0.20789860
   0.66666669  0.66666669  0.20789860
   0.00000000  0.16666667  0.04210141
   0.00000000  0.50000000  0.04210141
   0.00000000  0.83333331  0.04210141
   0.33333334  0.16666667  0.04210141
   0.33333334  0.50000000  0.04210141
   0.33333334  0.83333331  0.04210141
   0.66666669  0.16666667  0.04210141
   0.66666669  0.50000000  0.04210141
   0.66666669  0.83333331  0.04210141
   0.16666667  0.16666667  0.29210141
   0.16666667  0.50000000  0.29210141
   0.16666667  0.83333331  0.29210141
   0.50000000  0.16666667  0.29210141
   0.50000000  0.50000000  0.29210141
   0.50000000  0.83333331  0.29210141
   0.83333331  0.16666667  0.29210141
   0.83333331  0.50000000  0.29210141
   0.83333331  0.83333331  0.29210141

 position of ions in cartesian coordinates  (Angst):
   1.89614063  1.89614063  4.80228710
   1.89614063  5.68842173  4.80228710
   1.89614063  9.48070265  4.80228710
   5.68842173  1.89614063  4.80228710
   5.68842173  5.88842173  4.80228710
   5.68842173  9.48070265  4.80228710
   9.48070265  1.89614063  4.80228710
   9.48070265  5.68842173  4.80228710
   9.48070265  9.48070265  4.80228710
   1.89614063  0.00000000  7.20343065
   1.89614063  3.79228126  7.20343065
   1.89614063  7.58456253  7.20343065
   5.68842173  0.00000000  7.20343065
   5.68842173  3.79228126  7.20343065
   5.68842173  7.58456253  7.20343065
   9.48070265  0.00000000  7.20343065
   9.48070265  3.79228126  7.20343065
   9.48070265  7.58456253  7.20343065
   0.00000000  0.00000000  0.00000000
   0.00000000  3.79228126  0.00000000
   0.00000000  7.58456253  0.00000000
   3.79228126  0.00000000  0.00000000
   3.79228126  3.79228126  0.00000000
   3.79228126  7.58456253  0.00000000
   7.58456253  0.00000000  0.00000000
   7.58456253  3.79228126  0.00000000
   7.58456253  7.58456253  0.00000000
   0.00000000  1.89614063  2.40114355
   0.00000000  5.68842173  2.40114355
   0.00000000  9.48070265  2.40114355
   3.79228126  1.89614063  2.40114355
   3.79228126  5.68842173  2.40114355
   3.79228126  9.48070265  2.40114355
   7.58456253  1.89614063  2.40114355
   7.58456253  5.68842173  2.40114355
   7.58456253  9.48070265  2.40114355
   0.00000000  1.89614063  4.39792096
   0.00000000  5.68842173  4.39792096
   0.00000000  9.48070265  4.39792096
   3.79228126  1.89614063  4.39792096
   3.79228126  5.68842173  4.39792096
   3.79228126  9.48070265  4.39792096
   7.58456253  1.89614063  4.39792096
   7.58456253  5.68842173  4.39792096
   7.58456253  9.48070265  4.39792096
   1.89614063  1.89614063  6.79906479
   1.89614063  5.68842173  6.79906479
   1.89614063  9.48070265  6.79906479
   5.68842173  1.89614063  6.79906479
   5.68842173  5.68842173  6.79906479
   5.68842173  9.48070265  6.79906479
   9.48070265  1.89614063  6.79906479
   9.48070265  5.68842173  6.79906479
   9.48070265  9.48070265  6.79906479
   1.89614063  0.00000000  5.20665296
   1.89614063  3.79228126  5.20665296
   1.89614063  7.58456253  5.20665296
   5.68842173  0.00000000  5.20665296
   5.68842173  3.79228126  5.20665296
   5.68842173  7.58456253  5.20665296
   9.48070265  0.00000000  5.20665296
   9.48070265  3.79228126  5.20665296
   9.48070265  7.58456253  5.20665296
   0.00000000  0.00000000  7.60779651
   0.00000000  3.79228126  7.60779651
   0.00000000  7.58456253  7.60779651
   3.79228126  0.00000000  7.60779651
   3.79228126  3.79228126  7.60779651
   3.79228126  7.58456253  7.60779651
   7.58456253  0.00000000  7.60779651
   7.58456253  3.79228126  7.60779651
   7.58456253  7.58456253  7.60779651
   1.89614063  0.00000000  9.20020834
   1.89614063  3.79228126  9.20020834
   1.89614063  7.58456253  9.20020834
   5.68842173  0.00000000  9.20020834
   5.68842173  3.79228126  9.20020834
   5.68842173  7.58456253  9.20020834
   9.48070265  0.00000000  9.20020834
   9.48070265  3.79228126  9.20020834
   9.48070265  7.58456253  9.20020834
   0.00000000  0.00000000  1.99677755
   0.00000000  3.79228126  1.99677755
   0.00000000  7.58456253  1.99677755
   3.79228126  0.00000000  1.99677755
   3.79228126  3.79228126  1.99677755
   3.79228126  7.58456253  1.99677755
   7.58456253  0.00000000  1.99677755
   7.58456253  3.79228126  1.99677755
   7.58456253  7.58456253  1.99677755
   0.00000000  1.89614063  0.40436607
   0.00000000  5.68842173  0.40436607
   0.00000000  9.48070265  0.40436607
   3.79228126  1.89614063  0.40436607
   3.79228126  5.68842173  0.40436607
   3.79228126  9.48070265  0.40436607
   7.58456253  1.89614063  0.40436607
   7.58456253  5.68842173  0.40436607
   7.58456253  9.48070265  0.40436607
   1.89614063  1.89614063  2.80550970
   1.89614063  5.68842173  2.80550970
   1.89614063  9.48070265  2.80550970
   5.68842173  1.89614063  2.80550970
   5.68842173  5.68842173  2.80550970
   5.68842173  9.48070265  2.80550970
   9.48070265  1.89614063  2.80550970
   9.48070265  5.68842173  2.80550970
   9.48070265  9.48070265  2.80550970



--------------------------------------------------------------------------------------------------------


 k-point   1 :   0.2500 0.2500 0.2500  plane waves:   22590
 k-point   2 :  -0.2500 0.2500 0.2500  plane waves:   22590
 k-point   3 :  -0.2500-0.2500 0.2500  plane waves:   22590
 k-point   4 :   0.2500-0.2500 0.2500  plane waves:   22590

 maximum and minimum number of plane-waves per node :     22590    22590

 maximum number of plane-waves:     22590
 maximum index in each direction:
   IXMAX=   18   IYMAX=   18   IZMAX=   15
   IXMIN=  -18   IYMIN=  -18   IZMIN=  -15


 serial   3D FFT for wavefunctions
 parallel 3D FFT for charge:
    minimum data exchange during FFTs selected (reduces bandwidth)


 total amount of memory used by VASP MPI-rank0   266724. kBytes
=======================================================================

   base      :      30000. kBytes
   nonlr-proj:      19555. kBytes
   fftplans  :      10927. kBytes
   grid      :      23181. kBytes
   one-center:       1679. kBytes
   wavefun   :     181382. kBytes

     INWAV:  cpu time      0.0000: real time      0.0005
 Broyden mixing: mesh for mixing (old mesh)
   NGX = 37   NGY = 37   NGZ = 31
  (NGX  =112   NGY  =112   NGZ  = 96)
  gives a total of  42439 points

 initial charge density was supplied:
 charge density of overlapping atoms calculated
 number of electron     792.0000000 magnetization
 keeping initial charge density in first step


--------------------------------------------------------------------------------------------------------


 Maximum index for non-local projection operator         1743
 Maximum index for augmentation-charges         1189 (set IRDMAX)


--------------------------------------------------------------------------------------------------------


 First call to EWALD:  gamma=   0.165
 Maximum number of real-space cells 3x 3x 3
 Maximum number of reciprocal cells 3x 3x 3

    FEWALD:  cpu time      0.2803: real time      0.2820


--------------------------------------- Iteration      1(   1)  ---------------------------------------


    POTLOK:  cpu time      0.2482: real time      0.2514
    SETDIJ:  cpu time      0.0102: real time      0.0117
     EDDAV:  cpu time     20.6183: real time     20.7354
       DOS:  cpu time      0.0039: real time      0.0048
    --------------------------------------------
      LOOP:  cpu time     20.8806: real time     21.0034

 eigenvalue-minimisations  :  3824
 total energy-change (2. order) : 0.1156187E+05  (-0.3305610E+05)
 number of electron     792.0000000 magnetization
 augmentation part      792.0000000 magnetization

 Free energy of the ion-electron system (eV)
  ---------------------------------------------------
  alpha Z        PSCENC =      3563.47650690
  Ewald energy   TEWEN  =    -48582.67993452
  -Hartree energ DENC   =    -18845.50372278
  -exchange      EXHF   =         0.00000000
  -V(xc)+E(xc)   XCENC  =      3286.91405821
  PAW double counting   =     54431.09303398   -54537.79254336
  entropy T*S    EENTRO =        -0.15137796
  eigenvalues    EBANDS =      3590.11971474
  atomic energy  EATOM  =     68656.39924158
  Solvation  Ediel_sol  =         0.00000000
  ---------------------------------------------------
  free energy    TOTEN  =     11561.87497678 eV

  energy without entropy =    11562.02635475  energy(sigma->0) =    11561.95066577


--------------------------------------------------------------------------------------------------------




--------------------------------------- Iteration      1(   2)  ---------------------------------------


     EDDAV:  cpu time     19.2331: real time     19.3486
       DOS:  cpu time      0.0009: real time      0.0009
    --------------------------------------------
      LOOP:  cpu time     19.2339: real time     19.3493

 eigenvalue-minimisations  :  3808
 total energy-change (2. order) :-0.9988873E+04  (-0.9558530E+04)
 number of electron     792.0000000 magnetization
 augmentation part      792.0000000 magnetization

 Free energy of the ion-electron system (eV)
  ---------------------------------------------------
  alpha Z        PSCENC =      3563.47650690
  Ewald energy   TEWEN  =    -48582.67993452
  -Hartree energ DENC   =    -18845.50372278
  -exchange      EXHF   =         0.00000000
  -V(xc)+E(xc)   XCENC  =      3286.91405821
  PAW double counting   =     54431.09303398   -54537.79254336
  entropy T*S    EENTRO =        -0.27779880
  eigenvalues    EBANDS =     -6398.62698560
  atomic energy  EATOM  =     68656.39924158
  Solvation  Ediel_sol  =         0.00000000
  ---------------------------------------------------
  free energy    TOTEN  =      1573.00185561 eV

  energy without entropy =     1573.27965441  energy(sigma->0) =     1573.14075501


--------------------------------------------------------------------------------------------------------




--------------------------------------- Iteration      1(   3)  ---------------------------------------


     EDDAV:  cpu time     22.9190: real time     23.0545
       DOS:  cpu time      0.0007: real time      0.0007
    --------------------------------------------
      LOOP:  cpu time     22.9198: real time     23.0552

 eigenvalue-minimisations  :  4424
 total energy-change (2. order) :-0.2642257E+04  (-0.2571047E+04)
 number of electron     792.0000000 magnetization
 augmentation part      792.0000000 magnetization

 Free energy of the ion-electron system (eV)
  ---------------------------------------------------
  alpha Z        PSCENC =      3563.47650690
  Ewald energy   TEWEN  =    -48582.67993452
  -Hartree energ DENC   =    -18845.50372278
  -exchange      EXHF   =         0.00000000
  -V(xc)+E(xc)   XCENC  =      3286.91405821
  PAW double counting   =     54431.09303398   -54537.79254336
  entropy T*S    EENTRO =        -0.00000000
  eigenvalues    EBANDS =     -9041.16192845
  atomic energy  EATOM  =     68656.39924158
  Solvation  Ediel_sol  =         0.00000000
  ---------------------------------------------------
  free energy    TOTEN  =     -1069.25528844 eV

  energy without entropy =    -1069.25528844  energy(sigma->0) =    -1069.25528844


--------------------------------------------------------------------------------------------------------




--------------------------------------- Iteration      1(   4)  ---------------------------------------


     EDDAV:  cpu time     26.7611: real time     26.9098
       DOS:  cpu time      0.0007: real time      0.0007
    --------------------------------------------
      LOOP:  cpu time     26.7618: real time     26.9105

 eigenvalue-minimisations  :  5056
 total energy-change (2. order) :-0.2037380E+03  (-0.2026688E+03)
 number of electron     792.0000000 magnetization
 augmentation part      792.0000000 magnetization

 Free energy of the ion-electron system (eV)
  ---------------------------------------------------
  alpha Z        PSCENC =      3563.47650690
  Ewald energy   TEWEN  =    -48582.67993452
  -Hartree energ DENC   =    -18845.50372278
  -exchange      EXHF   =         0.00000000
  -V(xc)+E(xc)   XCENC  =      3286.91405821
  PAW double counting   =     54431.09303398   -54537.79254336
  entropy T*S    EENTRO =        -0.00000000
  eigenvalues    EBANDS =     -9244.89993654
  atomic energy  EATOM  =     68656.39924158
  Solvation  Ediel_sol  =         0.00000000
  ---------------------------------------------------
  free energy    TOTEN  =     -1272.99329653 eV

  energy without entropy =    -1272.99329653  energy(sigma->0) =    -1272.99329653


--------------------------------------------------------------------------------------------------------




--------------------------------------- Iteration      1(   5)  ---------------------------------------


     EDDAV:  cpu time     26.7132: real time     26.8650
       DOS:  cpu time      0.0008: real time      0.0008
    CHARGE:  cpu time      0.2539: real time      0.2565
    MIXING:  cpu time      0.0136: real time      0.0138
    --------------------------------------------
      LOOP:  cpu time     26.9816: real time     27.1362

 eigenvalue-minimisations  :  4976
 total energy-change (2. order) :-0.5208522E+01  (-0.5197283E+01)
 number of electron     792.0003053 magnetization
 augmentation part      202.2537319 magnetization

 Broyden mixing:
  rms(total) = 0.17277E+02    rms(broyden)= 0.17276E+02
  rms(prec ) = 0.19210E+02
  weight for this iteration     100.00

 Free energy of the ion-electron system (eV)
  ---------------------------------------------------
  alpha Z        PSCENC =      3563.47650690
  Ewald energy   TEWEN  =    -48582.67993452
  -Hartree energ DENC   =    -18845.50372278
  -exchange      EXHF   =         0.00000000
  -V(xc)+E(xc)   XCENC  =      3286.91405821
  PAW double counting   =     54431.09303398   -54537.79254336
  entropy T*S    EENTRO =        -0.00000000
  eigenvalues    EBANDS =     -9250.10845834
  atomic energy  EATOM  =     68656.39924158
  Solvation  Ediel_sol  =         0.00000000
  ---------------------------------------------------
  free energy    TOTEN  =     -1278.20181833 eV

  energy without entropy =    -1278.20181833  energy(sigma->0) =    -1278.20181833


--------------------------------------------------------------------------------------------------------




--------------------------------------- Iteration      1(   6)  ---------------------------------------


    POTLOK:  cpu time      0.2348: real time      0.2366
    SETDIJ:  cpu time      0.0255: real time      0.0257
     EDDAV:  cpu time     22.8843: real time     23.0167
       DOS:  cpu time      0.0006: real time      0.0006
    CHARGE:  cpu time      0.2442: real time      0.2466
    MIXING:  cpu time      0.0112: real time      0.0113
    --------------------------------------------
      LOOP:  cpu time     23.4006: real time     23.5374

 eigenvalue-minimisations  :  4976
 total energy-change (2. order) : 0.3023319E+03  (-0.1974055E+03)
 number of electron     792.0002455 magnetization
 augmentation part      214.1507283 magnetization

 Broyden mixing:
  rms(total) = 0.53236E+01    rms(broyden)= 0.53186E+01
  rms(prec ) = 0.58501E+01
  weight for this iteration     100.00

 eigenvalues of (default mixing * dielectric matrix)
  average eigenvalue GAMMA=   0.9665
  0.9665

 Free energy of the ion-electron system (eV)
  ---------------------------------------------------
  alpha Z        PSCENC =      3563.47650690
  Ewald energy   TEWEN  =    -48582.67993452
  -Hartree energ DENC   =    -19070.52350339
  -exchange      EXHF   =         0.00000000
  -V(xc)+E(xc)   XCENC  =      3337.94324005
  PAW double counting   =     68292.99295897   -68525.31347554
  entropy T*S    EENTRO =        -0.00000000
  eigenvalues    EBANDS =     -8648.16490534
  atomic energy  EATOM  =     68656.39924158
  Solvation  Ediel_sol  =         0.00000000
  ---------------------------------------------------
  free energy    TOTEN  =      -975.86987128 eV

  energy without entropy =     -975.86987128  energy(sigma->0) =     -975.86987128


--------------------------------------------------------------------------------------------------------




--------------------------------------- Iteration      1(   7)  ---------------------------------------


    POTLOK:  cpu time      0.2003: real time      0.2022
    SETDIJ:  cpu time      0.0088: real time      0.0089
     EDDAV:  cpu time     27.2075: real time     27.3602
       DOS:  cpu time      0.0006: real time      0.0006
    CHARGE:  cpu time      0.2422: real time      0.2447
    MIXING:  cpu time      0.0157: real time      0.0158
    --------------------------------------------
      LOOP:  cpu time     27.6751: real time     27.8324

 eigenvalue-minimisations  :  5344
 total energy-change (2. order) : 0.4094846E+01  (-0.2878535E+02)
 number of electron     792.0002649 magnetization
 augmentation part      207.3291352 magnetization

 Broyden mixing:
  rms(total) = 0.46139E+01    rms(broyden)= 0.46136E+01
  rms(prec ) = 0.48076E+01
  weight for this iteration     100.00

 eigenvalues of (default mixing * dielectric matrix)
  average eigenvalue GAMMA=   1.8404
  0.7373  2.9434

 Free energy of the ion-electron system (eV)
  ---------------------------------------------------
  alpha Z        PSCENC =      3563.47650690
  Ewald energy   TEWEN  =    -48582.67993452
  -Hartree energ DENC   =    -18915.16792283
  -exchange      EXHF   =         0.00000000
  -V(xc)+E(xc)   XCENC  =      3318.80327862
  PAW double counting   =     75326.11170001   -75569.39231456
  entropy T*S    EENTRO =        -0.00000000
  eigenvalues    EBANDS =     -8769.32558063
  atomic energy  EATOM  =     68656.39924158
  Solvation  Ediel_sol  =         0.00000000
  ---------------------------------------------------
  free energy    TOTEN  =      -971.77502543 eV

  energy without entropy =     -971.77502543  energy(sigma->0) =     -971.77502543


--------------------------------------------------------------------------------------------------------




--------------------------------------- Iteration      1(   8)  ---------------------------------------


    POTLOK:  cpu time      0.1912: real time      0.1932
    SETDIJ:  cpu time      0.0118: real time      0.0119
     EDDAV:  cpu time     26.7811: real time     27.1675
       DOS:  cpu time      0.0008: real time      0.0008
    CHARGE:  cpu time      0.2520: real time      0.2547
    MIXING:  cpu time      0.0132: real time      0.0133
    --------------------------------------------
      LOOP:  cpu time     27.2501: real time     27.6413

 eigenvalue-minimisations  :  4992
 total energy-change (2. order) : 0.2474257E-01  (-0.1100094E+02)
 number of electron     792.0002583 magnetization
 augmentation part      215.5543322 magnetization

 Broyden mixing:
  rms(total) = 0.33502E+01    rms(broyden)= 0.33500E+01
  rms(prec ) = 0.36488E+01
  weight for this iteration     100.00

 eigenvalues of (default mixing * dielectric matrix)
  average eigenvalue GAMMA=   1.2325
  2.1659  0.9318  0.5998

 Free energy of the ion-electron system (eV)
  ---------------------------------------------------
  alpha Z        PSCENC =      3563.47650690
  Ewald energy   TEWEN  =    -48582.67993452
  -Hartree energ DENC   =    -18538.97586049
  -exchange      EXHF   =         0.00000000
  -V(xc)+E(xc)   XCENC  =      3304.07922875
  PAW double counting   =     93926.38332894   -94241.68347308
  entropy T*S    EENTRO =        -0.00000000
  eigenvalues    EBANDS =     -9058.74932094
  atomic energy  EATOM  =     68656.39924158
  Solvation  Ediel_sol  =         0.00000000
  ---------------------------------------------------
  free energy    TOTEN  =      -971.75028286 eV

  energy without entropy =     -971.75028286  energy(sigma->0) =     -971.75028286


--------------------------------------------------------------------------------------------------------




--------------------------------------- Iteration      1(   9)  ---------------------------------------


    POTLOK:  cpu time      0.2390: real time      0.2413
    SETDIJ:  cpu time      0.0090: real time      0.0091
     EDDAV:  cpu time     24.0931: real time     24.2391
       DOS:  cpu time      0.0007: real time      0.0007
    CHARGE:  cpu time      0.2476: real time      0.2502
    MIXING:  cpu time      0.0122: real time      0.0123
    --------------------------------------------
      LOOP:  cpu time     24.6015: real time     24.7526

 eigenvalue-minimisations  :  5104
 total energy-change (2. order) : 0.5505714E+01  (-0.3438704E+01)
 number of electron     792.0002631 magnetization
 augmentation part      211.4782656 magnetization

 Broyden mixing:
  rms(total) = 0.26625E+00    rms(broyden)= 0.26553E+00
  rms(prec ) = 0.29317E+00
  weight for this iteration     100.00

 eigenvalues of (default mixing * dielectric matrix)
  average eigenvalue GAMMA=   1.1196
  2.1736  0.8286  0.8286  0.6477

 Free energy of the ion-electron system (eV)
  ---------------------------------------------------
  alpha Z        PSCENC =      3563.47650690
  Ewald energy   TEWEN  =    -48582.67993452
  -Hartree energ DENC   =    -18682.89696881
  -exchange      EXHF   =         0.00000000
  -V(xc)+E(xc)   XCENC  =      3308.94337974
  PAW double counting   =     88684.93087616   -88981.16470499
  entropy T*S    EENTRO =        -0.00000000
  eigenvalues    EBANDS =     -8933.25296464
  atomic energy  EATOM  =     68656.39924158
  Solvation  Ediel_sol  =         0.00000000
  ---------------------------------------------------
  free energy    TOTEN  =      -966.24456859 eV

  energy without entropy =     -966.24456859  energy(sigma->0) =     -966.24456859


--------------------------------------------------------------------------------------------------------




--------------------------------------- Iteration      1(  10)  ---------------------------------------


    POTLOK:  cpu time      0.1995: real time      0.2011
    SETDIJ:  cpu time      0.0087: real time      0.0087
     EDDAV:  cpu time     22.1529: real time     22.2857
       DOS:  cpu time      0.0006: real time      0.0007
    CHARGE:  cpu time      0.2487: real time      0.2511
    MIXING:  cpu time      0.0143: real time      0.0144
    --------------------------------------------
      LOOP:  cpu time     22.6247: real time     22.7616

 eigenvalue-minimisations  :  5240
 total energy-change (2. order) :-0.3566657E-01  (-0.8311491E-01)
 number of electron     792.0002625 magnetization
 augmentation part      211.5118807 magnetization

 Broyden mixing:
  rms(total) = 0.20815E+00    rms(broyden)= 0.20809E+00
  rms(prec ) = 0.22490E+00
  weight for this iteration     100.00

 eigenvalues of (default mixing * dielectric matrix)
  average eigenvalue GAMMA=   1.2819
  2.4470  1.7214  1.0648  0.6513  0.5248

 Free energy of the ion-electron system (eV)
  ---------------------------------------------------
  alpha Z        PSCENC =      3563.47650690
  Ewald energy   TEWEN  =    -48582.67993452
  -Hartree energ DENC   =    -18704.71356241
  -exchange      EXHF   =         0.00000000
  -V(xc)+E(xc)   XCENC  =      3310.51594229
  PAW double counting   =     88870.59968699   -89169.07351385
  entropy T*S    EENTRO =        -0.00000000
  eigenvalues    EBANDS =     -8910.80460212
  atomic energy  EATOM  =     68656.39924158
  Solvation  Ediel_sol  =         0.00000000
  ---------------------------------------------------
  free energy    TOTEN  =      -966.28023515 eV

  energy without entropy =     -966.28023515  energy(sigma->0) =     -966.28023515


--------------------------------------------------------------------------------------------------------




--------------------------------------- Iteration      1(  11)  ---------------------------------------


    POTLOK:  cpu time      0.2119: real time      0.2136
    SETDIJ:  cpu time      0.0323: real time      0.0325
     EDDAV:  cpu time     21.7160: real time     21.8411
       DOS:  cpu time      0.0006: real time      0.0006
    CHARGE:  cpu time      0.2421: real time      0.2433
    MIXING:  cpu time      0.0141: real time      0.0142
    --------------------------------------------
      LOOP:  cpu time     22.2171: real time     22.3453

 eigenvalue-minimisations  :  4480
 total energy-change (2. order) :-0.6103156E-01  (-0.4667710E-01)
 number of electron     792.0002616 magnetization
 augmentation part      211.4957149 magnetization

 Broyden mixing:
  rms(total) = 0.21504E+00    rms(broyden)= 0.21501E+00
  rms(prec ) = 0.25933E+00
  weight for this iteration     100.00

 eigenvalues of (default mixing * dielectric matrix)
  average eigenvalue GAMMA=   1.2609
  2.5374  1.8339  1.0072  1.0072  0.5897  0.5897

 Free energy of the ion-electron system (eV)
  ---------------------------------------------------
  alpha Z        PSCENC =      3563.47650690
  Ewald energy   TEWEN  =    -48582.67993452
  -Hartree energ DENC   =    -18745.46135549
  -exchange      EXHF   =         0.00000000
  -V(xc)+E(xc)   XCENC  =      3313.36214526
  PAW double counting   =     89284.90586525   -89587.45825285
  entropy T*S    EENTRO =        -0.00000000
  eigenvalues    EBANDS =     -8868.88548284
  atomic energy  EATOM  =     68656.39924158
  Solvation  Ediel_sol  =         0.00000000
  ---------------------------------------------------
  free energy    TOTEN  =      -966.34126671 eV

  energy without entropy =     -966.34126671  energy(sigma->0) =     -966.34126671


--------------------------------------------------------------------------------------------------------




--------------------------------------- Iteration      1(  12)  ---------------------------------------


    POTLOK:  cpu time      0.1666: real time      0.1679
    SETDIJ:  cpu time      0.0404: real time      0.0411
     EDDAV:  cpu time     27.4682: real time     27.6213
       DOS:  cpu time      0.0007: real time      0.0007
    CHARGE:  cpu time      0.2532: real time      0.2545
    MIXING:  cpu time      0.0180: real time      0.0181
    --------------------------------------------
      LOOP:  cpu time     27.9471: real time     28.1037

 eigenvalue-minimisations  :  5256
 total energy-change (2. order) : 0.5488524E-01  (-0.4745591E-01)
 number of electron     792.0002625 magnetization
 augmentation part      211.1971217 magnetization

 Broyden mixing:
  rms(total) = 0.49544E-01    rms(broyden)= 0.49421E-01
  rms(prec ) = 0.57405E-01
  weight for this iteration     100.00

 eigenvalues of (default mixing * dielectric matrix)
  average eigenvalue GAMMA=   1.2339
  2.5899  1.5444  1.5444  0.9878  0.8066  0.5820  0.5820

 Free energy of the ion-electron system (eV)
  ---------------------------------------------------
  alpha Z        PSCENC =      3563.47650690
  Ewald energy   TEWEN  =    -48582.67993452
  -Hartree energ DENC   =    -18742.76360429
  -exchange      EXHF   =         0.00000000
  -V(xc)+E(xc)   XCENC  =      3312.74798847
  PAW double counting   =     89331.53720128   -89633.37493810
  entropy T*S    EENTRO =        -0.00000000
  eigenvalues    EBANDS =     -8871.62884279
  atomic energy  EATOM  =     68656.39924158
  Solvation  Ediel_sol  =         0.00000000
  ---------------------------------------------------
  free energy    TOTEN  =      -966.28638147 eV

  energy without entropy =     -966.28638147  energy(sigma->0) =     -966.28638147


--------------------------------------------------------------------------------------------------------




--------------------------------------- Iteration      1(  13)  ---------------------------------------


    POTLOK:  cpu time      0.2260: real time      0.2282
    SETDIJ:  cpu time      0.0144: real time      0.0145
     EDDAV:  cpu time     26.9820: real time     27.1365
       DOS:  cpu time      0.0006: real time      0.0007
    CHARGE:  cpu time      0.2466: real time      0.2478
    MIXING:  cpu time      0.0186: real time      0.0187
    --------------------------------------------
      LOOP:  cpu time     27.4883: real time     27.6464

 eigenvalue-minimisations  :  5312
 total energy-change (2. order) : 0.2999193E-03  (-0.1743724E-02)
 number of electron     792.0002624 magnetization
 augmentation part      211.2413318 magnetization

 Broyden mixing:
  rms(total) = 0.21085E-01    rms(broyden)= 0.21074E-01
  rms(prec ) = 0.25119E-01
  weight for this iteration     100.00

 eigenvalues of (default mixing * dielectric matrix)
  average eigenvalue GAMMA=   1.1913
  2.6088  1.7212  1.7212  0.9264  0.6944  0.6944  0.5321  0.6319

 Free energy of the ion-electron system (eV)
  ---------------------------------------------------
  alpha Z        PSCENC =      3563.47650690
  Ewald energy   TEWEN  =    -48582.67993452
  -Hartree energ DENC   =    -18742.58316884
  -exchange      EXHF   =         0.00000000
  -V(xc)+E(xc)   XCENC  =      3312.77230260
  PAW double counting   =     89367.69594038   -89669.50611488
  entropy T*S    EENTRO =        -0.00000000
  eigenvalues    EBANDS =     -8871.86085476
  atomic energy  EATOM  =     68656.39924158
  Solvation  Ediel_sol  =         0.00000000
  ---------------------------------------------------
  free energy    TOTEN  =      -966.28608155 eV

  energy without entropy =     -966.28608155  energy(sigma->0) =     -966.28608155


--------------------------------------------------------------------------------------------------------




--------------------------------------- Iteration      1(  14)  ---------------------------------------


    POTLOK:  cpu time      0.1736: real time      0.1755
    SETDIJ:  cpu time      0.0538: real time      0.0547
     EDDAV:  cpu time     26.7720: real time     26.9233
       DOS:  cpu time      0.0008: real time      0.0008
    CHARGE:  cpu time      0.2460: real time      0.2472
    MIXING:  cpu time      0.0202: real time      0.0203
    --------------------------------------------
      LOOP:  cpu time     27.2664: real time     27.4218

 eigenvalue-minimisations  :  5344
 total energy-change (2. order) : 0.2045345E-03  (-0.1439866E-03)
 number of electron     792.0002623 magnetization
 augmentation part      211.2496596 magnetization

 Broyden mixing:
  rms(total) = 0.11524E-01    rms(broyden)= 0.11523E-01
  rms(prec ) = 0.13413E-01
  weight for this iteration     100.00

 eigenvalues of (default mixing * dielectric matrix)
  average eigenvalue GAMMA=   1.2267
  2.5740  1.8401  1.8401  1.0463  0.9681  0.9681  0.5735  0.5735  0.6567

 Free energy of the ion-electron system (eV)
  ---------------------------------------------------
  alpha Z        PSCENC =      3563.47650690
  Ewald energy   TEWEN  =    -48582.67993452
  -Hartree energ DENC   =    -18743.60014525
  -exchange      EXHF   =         0.00000000
  -V(xc)+E(xc)   XCENC  =      3312.84108011
  PAW double counting   =     89362.02975229   -89663.75810912
  entropy T*S    EENTRO =        -0.00000000
  eigenvalues    EBANDS =     -8870.99426900
  atomic energy  EATOM  =     68656.39924158
  Solvation  Ediel_sol  =         0.00000000
  ---------------------------------------------------
  free energy    TOTEN  =      -966.28587701 eV

  energy without entropy =     -966.28587701  energy(sigma->0) =     -966.28587701


--------------------------------------------------------------------------------------------------------




--------------------------------------- Iteration      1(  15)  ---------------------------------------


    POTLOK:  cpu time      0.1767: real time      0.1785
    SETDIJ:  cpu time      0.0553: real time      0.0556
     EDDAV:  cpu time     28.5207: real time     28.6802
       DOS:  cpu time      0.0007: real time      0.0007
    CHARGE:  cpu time      0.2480: real time      0.2493
    MIXING:  cpu time      0.0162: real time      0.0163
    --------------------------------------------
      LOOP:  cpu time     29.0176: real time     29.1804

 eigenvalue-minimisations  :  5296
 total energy-change (2. order) :-0.1269553E-03  (-0.8988480E-04)
 number of electron     792.0002623 magnetization
 augmentation part      211.2403761 magnetization

 Broyden mixing:
  rms(total) = 0.98408E-02    rms(broyden)= 0.98381E-02
  rms(prec ) = 0.11862E-01
  weight for this iteration     100.00

 eigenvalues of (default mixing * dielectric matrix)
  average eigenvalue GAMMA=   1.2315
  2.6869  2.1508  2.1508  0.9088  0.9088  0.8976  0.8976  0.5837  0.5837  0.5462

 Free energy of the ion-electron system (eV)
  ---------------------------------------------------
  alpha Z        PSCENC =      3563.47650690
  Ewald energy   TEWEN  =    -48582.67993452
  -Hartree energ DENC   =    -18744.73535609
  -exchange      EXHF   =         0.00000000
  -V(xc)+E(xc)   XCENC  =      3312.89147992
  PAW double counting   =     89341.06152219   -89642.60266626
  entropy T*S    EENTRO =        -0.00000000
  eigenvalues    EBANDS =     -8870.09679768
  atomic energy  EATOM  =     68656.39924158
  Solvation  Ediel_sol  =         0.00000000
  ---------------------------------------------------
  free energy    TOTEN  =      -966.28600397 eV

  energy without entropy =     -966.28600397  energy(sigma->0) =     -966.28600397


--------------------------------------------------------------------------------------------------------




--------------------------------------- Iteration      1(  16)  ---------------------------------------


    POTLOK:  cpu time      0.2027: real time      0.2046
    SETDIJ:  cpu time      0.0323: real time      0.0330
     EDDAV:  cpu time     24.8965: real time     25.0413
       DOS:  cpu time      0.0007: real time      0.0007
    CHARGE:  cpu time      0.2422: real time      0.2439
    MIXING:  cpu time      0.0177: real time      0.0178
    --------------------------------------------
      LOOP:  cpu time     25.3921: real time     25.5413

 eigenvalue-minimisations  :  5280
 total energy-change (2. order) : 0.4160898E-04  (-0.1217272E-03)
 number of electron     792.0002623 magnetization
 augmentation part      211.2553791 magnetization

 Broyden mixing:
  rms(total) = 0.48397E-02    rms(broyden)= 0.48362E-02
  rms(prec ) = 0.55154E-02
  weight for this iteration     100.00

 eigenvalues of (default mixing * dielectric matrix)
  average eigenvalue GAMMA=   1.2011
  2.7525  2.4401  1.9101  0.8198  0.8198  0.9558  0.9558  0.8139  0.5852  0.5852
  0.5745

 Free energy of the ion-electron system (eV)
  ---------------------------------------------------
  alpha Z        PSCENC =      3563.47650690
  Ewald energy   TEWEN  =    -48582.67993452
  -Hartree energ DENC   =    -18745.42525231
  -exchange      EXHF   =         0.00000000
  -V(xc)+E(xc)   XCENC  =      3312.94305579
  PAW double counting   =     89339.62120836   -89641.10576292
  entropy T*S    EENTRO =        -0.00000000
  eigenvalues    EBANDS =     -8869.51502524
  atomic energy  EATOM  =     68656.39924158
  Solvation  Ediel_sol  =         0.00000000
  ---------------------------------------------------
  free energy    TOTEN  =      -966.28596236 eV

  energy without entropy =     -966.28596236  energy(sigma->0) =     -966.28596236


--------------------------------------------------------------------------------------------------------




--------------------------------------- Iteration      1(  17)  ---------------------------------------


    POTLOK:  cpu time      0.1678: real time      0.1698
    SETDIJ:  cpu time      0.0309: real time      0.0311
     EDDAV:  cpu time     26.1902: real time     26.3423
       DOS:  cpu time      0.0007: real time      0.0007
    CHARGE:  cpu time      0.2431: real time      0.2445
    MIXING:  cpu time      0.0164: real time      0.0166
    --------------------------------------------
      LOOP:  cpu time     26.6491: real time     26.8049

 eigenvalue-minimisations  :  5320
 total energy-change (2. order) : 0.7113718E-05  (-0.1181625E-04)
 number of electron     792.0002623 magnetization
 augmentation part      211.2523965 magnetization

 Broyden mixing:
  rms(total) = 0.23500E-02    rms(broyden)= 0.23485E-02
  rms(prec ) = 0.28201E-02
  weight for this iteration     100.00

 eigenvalues of (default mixing * dielectric matrix)
  average eigenvalue GAMMA=   1.1745
  2.8319  2.4608  1.8481  1.0367  1.0367  0.8954  0.8954  0.6891  0.6891  0.5900
  0.5900  0.5302

 Free energy of the ion-electron system (eV)
  ---------------------------------------------------
  alpha Z        PSCENC =      3563.47650690
  Ewald energy   TEWEN  =    -48582.67993452
  -Hartree energ DENC   =    -18745.74431446
  -exchange      EXHF   =         0.00000000
  -V(xc)+E(xc)   XCENC  =      3312.95818592
  PAW double counting   =     89334.95266317   -89636.41885313
  entropy T*S    EENTRO =        -0.00000000
  eigenvalues    EBANDS =     -8869.22945070
  atomic energy  EATOM  =     68656.39924158
  Solvation  Ediel_sol  =         0.00000000
  ---------------------------------------------------
  free energy    TOTEN  =      -966.28595525 eV

  energy without entropy =     -966.28595525  energy(sigma->0) =     -966.28595525


--------------------------------------------------------------------------------------------------------




--------------------------------------- Iteration      1(  18)  ---------------------------------------


    POTLOK:  cpu time      0.1914: real time      0.1928
    SETDIJ:  cpu time      0.0217: real time      0.0218
     EDDAV:  cpu time     23.3778: real time     23.5135
       DOS:  cpu time      0.0008: real time      0.0008
    CHARGE:  cpu time      0.2458: real time      0.2470
    MIXING:  cpu time      0.0200: real time      0.0201
    --------------------------------------------
      LOOP:  cpu time     23.8575: real time     23.9961

 eigenvalue-minimisations  :  5280
 total energy-change (2. order) : 0.9753712E-06  (-0.1964091E-05)
 number of electron     792.0002623 magnetization
 augmentation part      211.2517854 magnetization

 Broyden mixing:
  rms(total) = 0.17077E-02    rms(broyden)= 0.17075E-02
  rms(prec ) = 0.20701E-02
  weight for this iteration     100.00

 eigenvalues of (default mixing * dielectric matrix)
  average eigenvalue GAMMA=   1.1822
  2.9348  2.4457  1.8161  1.1961  1.1961  0.9247  0.9247  0.8022  0.8022  0.6669
  0.5729  0.5729  0.5136

 Free energy of the ion-electron system (eV)
  ---------------------------------------------------
  alpha Z        PSCENC =      3563.47650690
  Ewald energy   TEWEN  =    -48582.67993452
  -Hartree energ DENC   =    -18745.82262805
  -exchange      EXHF   =         0.00000000
  -V(xc)+E(xc)   XCENC  =      3312.96083034
  PAW double counting   =     89334.07782797   -89635.54328171
[...]
      7.58456      3.79228      1.99678    -0.00871  0.02114 -2.90337 ( -0.63464  6.00000)
      7.58456      7.58456      1.99678    -0.00137 -0.00780 -2.87571 ( -0.63505  6.00000)
      0.00000      1.89614      0.40437    -0.00000 -0.00042 -2.89828 ( -0.63482  6.00000)
      0.00000      5.68842      0.40437    -0.00003  0.00132 -2.89239 ( -0.63480  6.00000)
      0.00000      9.48070      0.40437    -0.00000 -0.00107 -2.89051 ( -0.63483  6.00000)
      3.79228      1.89614      0.40437    -0.00238 -0.00130 -2.90597 ( -0.63485  6.00000)
      3.79228      5.68842      0.40437     0.00030  0.00615 -2.88887 ( -0.63482  6.00000)
      3.79228      9.48070      0.40437     0.00273 -0.00377 -2.88082 ( -0.63484  6.00000)
      7.58456      1.89614      0.40437     0.00234 -0.00133 -2.90600 ( -0.63484  6.00000)
      7.58456      5.68842      0.40437    -0.00030  0.00620 -2.88883 ( -0.63482  6.00000)
      7.58456      9.48070      0.40437    -0.00277 -0.00385 -2.88089 ( -0.63484  6.00000)
      1.89614      1.89614      2.80551    -0.02087  0.00016 -2.88842 ( -0.63487  6.00000)
      1.89614      5.68842      2.80551    -0.00000 -0.00433 -2.89186 ( -0.63483  6.00000)
      1.89614      9.48070      2.80551     0.02068 -0.00196 -2.90605 ( -0.63481  6.00000)
      5.68842      1.89614      2.80551     0.00004 -0.01663 -2.90236 ( -0.63492  6.00000)
      5.68842      5.68842      2.80551    -0.00002 -0.18261 -2.78818 ( -0.63430  6.00000)
      5.68842      9.48070      2.80551     0.00000 -0.02002 -2.89771 ( -0.63469  6.00000)
      9.48070      1.89614      2.80551     0.02090  0.00019 -2.88843 ( -0.63487  6.00000)
      9.48070      5.68842      2.80551     0.00006 -0.00439 -2.89186 ( -0.63483  6.00000)
      9.48070      9.48070      2.80551    -0.02067 -0.00196 -2.90602 ( -0.63481  6.00000)
 -----------------------------------------------------------------------------------------
    total drift (improves with k-points):   0.00024  0.00059 -0.07346




--------------------------------------------------------------------------------------------------------




 MACROSCOPIC STATIC DIELECTRIC TENSOR (including local field effects in DFT)
 ------------------------------------------------------
           6.957239    -0.000015    -0.000011
          -0.000010     6.942535     0.043898
          -0.000007     0.043898     6.369098
 ------------------------------------------------------



--------------------------------------------------------------------------------------------------------




--------------------------------------------------------------------------------------------------------




 MACROSCOPIC STATIC DIELECTRIC TENSOR (including local field effects in DFT)
 ------------------------------------------------------
           6.957239    -0.000015    -0.000011
          -0.000010     6.942535     0.043898
          -0.000007     0.043898     6.369098
 ------------------------------------------------------


 PIEZOELECTRIC TENSOR (including local field effects)  for field in x, y, z        (e  Angst)
          XX          YY          ZZ          XY          YZ          ZX
  --------------------------------------------------------------------------------
  x    -0.00009     0.00002     0.00017     0.88169     0.00056    -0.06865
  y     1.04923     0.07471     1.73228    -0.00010     0.31311    -0.00014
  z     0.17624     0.19336    -0.05982    -0.00014    -0.01504     0.00007

 PIEZOELECTRIC TENSOR (including local field effects)  for field in x, y, z        (C/m^2)
          XX          YY          ZZ          XY          YZ          ZX
  --------------------------------------------------------------------------------
  x    -0.00000     0.00000     0.00000     0.01136     0.00001    -0.00088
  y     0.01352     0.00096     0.02233    -0.00000     0.00404    -0.00000
  z     0.00227     0.00249    -0.00077    -0.00000    -0.00019     0.00000

 BORN EFFECTIVE CHARGES (including local field effects) (in |e|, cummulative output)
 ---------------------------------------------------------------------------------
 ion    1
    1     6.63552    -0.00457     0.00607
    2     0.00347     6.64866    -0.02743
    3     0.00685     0.00501     5.77098
 ion    2
    1     6.62740    -0.00209     0.00405
    2     0.05872     6.66885    -0.00766
    3    -0.02278    -0.00786     5.78848
 ion    3
    1     6.67816     0.00474    -0.00682
    2     0.03987     6.64905    -0.03761
    3     0.01027     0.01234     5.80184
 ion    4
    1     6.59264     0.00006    -0.00002
    2     0.00004     6.44197    -0.09959
    3    -0.00006     0.54787     5.73836
 ion    5
    1     6.40982    -0.00003     0.00004
    2     0.00007     6.34522     0.62946
    3    -0.00003     0.66782     5.64150
 ion    6
    1     6.70730     0.00000    -0.00001
    2     0.00006     6.42994    -0.03785
    3     0.00002     0.52844     5.83047
 ion    7
    1     6.63554     0.00460    -0.00602
    2    -0.00340     6.64873    -0.02737
    3    -0.00684     0.00502     5.77099
 ion    8
    1     6.62736     0.00219    -0.00411
    2    -0.05864     6.66885    -0.00761
    3     0.02272    -0.00777     5.78850
 ion    9
    1     6.67817    -0.00464     0.00679
    2    -0.03983     6.64903    -0.03755
    3    -0.01034     0.01238     5.80182
 ion   10
    1     6.66144     0.00008     0.00076
    2    -0.00330     6.64846     0.02077
    3     0.00114    -0.00067     5.78605
 ion   11
    1     6.64784    -0.00150    -0.00590
    2    -0.05907     6.66918    -0.03334
    3     0.00618    -0.00136     5.78612
 ion   12
    1     6.67477     0.00129     0.01132
    2    -0.03921     6.66669    -0.04065
    3    -0.00046     0.00209     5.79579
 ion   13
    1     6.65559    -0.00006    -0.00003
    2    -0.00009     6.61122     0.06688
    3    -0.00002    -0.00517     5.78605
 ion   14
    1     6.58843    -0.00008    -0.00005
    2    -0.00010     6.69721     0.51971
    3     0.00000     0.00571     5.83315
 ion   15
    1     6.73478    -0.00005    -0.00003
    2    -0.00000     6.67165     0.35504
    3    -0.00000    -0.00319     5.61907
 ion   16
    1     6.66144    -0.00019    -0.00078
    2     0.00323     6.64854     0.02076
    3    -0.00114    -0.00066     5.78606
 ion   17
    1     6.64783     0.00140     0.00589
    2     0.05893     6.66913    -0.03336
    3    -0.00621    -0.00134     5.78610
 ion   18
    1     6.67476    -0.00138    -0.01133
    2     0.03903     6.66674    -0.04059
    3     0.00047     0.00209     5.79576
 ion   19
    1     6.65630     0.00004    -0.00003
    2     0.00003     6.65123    -0.00892
    3     0.00001     0.00268     5.78658
 ion   20
    1     6.66398     0.00004     0.00003
    2     0.00006     6.66552     0.02704
    3     0.00002    -0.00323     5.78880
 ion   21
    1     6.65260     0.00006    -0.00004
    2     0.00004     6.66429     0.02515
    3    -0.00004     0.00035     5.78528
 ion   22
    1     6.65919     0.00005    -0.00172
    2    -0.00566     6.64834    -0.01746
    3     0.00085     0.01022     5.78485
 ion   23
    1     6.70224    -0.00009     0.02547
    2    -0.05091     6.67199     0.08110
    3    -0.00094    -0.00977     5.80947
 ion   24
    1     6.61003     0.00024    -0.03265
    2    -0.03652     6.66922     0.07976
    3     0.00077    -0.00253     5.74671
 ion   25
    1     6.65917    -0.00007     0.00169
    2     0.00571     6.64845    -0.01743
    3    -0.00082     0.01030     5.78487
 ion   26
    1     6.70224     0.00011    -0.02554
    2     0.05093     6.67197     0.08109
    3     0.00095    -0.00982     5.80945
 ion   27
    1     6.61008    -0.00020     0.03262
    2     0.03659     6.66928     0.07977
    3    -0.00077    -0.00248     5.74674
 ion   28
    1     6.66237    -0.00010    -0.00008
    2    -0.00012     6.65701     0.01730
    3    -0.00003    -0.00312     5.78748
 ion   29
    1     6.65408    -0.00002    -0.00001
    2    -0.00008     6.66104     0.00346
    3    -0.00001     0.00110     5.77977
 ion   30
    1     6.65485    -0.00007    -0.00003
    2    -0.00003     6.65575     0.02623
    3     0.00003     0.00240     5.78990
 ion   31
    1     6.70911    -0.00080    -0.05818
    2     0.00590     6.64809     0.02724
    3     0.00439    -0.01393     5.83674
 ion   32
    1     6.68221    -0.00176    -0.04071
    2     0.07184     6.65927     0.05042
    3    -0.04060     0.00118     5.76433
 ion   33
    1     6.60704    -0.00012     0.05901
    2     0.02019     6.64875     0.06023
    3    -0.00101     0.01182     5.74778
 ion   34
    1     6.70904     0.00078     0.05813
    2    -0.00605     6.64812     0.02724
    3    -0.00438    -0.01392     5.83678
 ion   35
    1     6.68216     0.00161     0.04068
    2    -0.07196     6.65929     0.05042
    3     0.04065     0.00110     5.76432
 ion   36
    1     6.60700     0.00003    -0.05907
    2    -0.02021     6.64876     0.06024
    3     0.00103     0.01183     5.74776
 ion   37
    1    -5.53726     0.00001    -0.00002
    2    -0.00003    -1.12762    -0.00129
    3    -0.00001     0.00109    -2.88769
 ion   38
    1    -5.52865    -0.00007     0.00002
    2    -0.00004    -1.12452    -0.00888
    3     0.00002    -0.00541    -2.89072
 ion   39
    1    -5.53446    -0.00001     0.00005
    2     0.00001    -1.11404    -0.00521
    3     0.00002    -0.00054    -2.90278
 ion   40
    1    -5.49248     0.02118     0.06371
    2    -0.04417    -1.09855     0.01078
    3    -0.04306    -0.01774    -2.92897
 ion   41
    1    -5.41863    -0.25806     0.05242
    2    -0.16343    -1.10742    -0.02353
    3     0.04349    -0.03741    -2.88816
 ion   42
    1    -5.56682     0.01748    -0.06430
    2    -0.11218    -1.11828    -0.01714
    3     0.01865    -0.01935    -2.86447
 ion   43
    1    -5.49253    -0.02123    -0.06366
    2     0.04413    -1.09858     0.01073
    3     0.04308    -0.01775    -2.92900
 ion   44
    1    -5.41859     0.25809    -0.05239
    2     0.16338    -1.10744    -0.02346
    3    -0.04347    -0.03735    -2.88818
 ion   45
    1    -5.56679    -0.01754     0.06426
    2     0.11210    -1.11824    -0.01715
    3    -0.01869    -0.01937    -2.86446
 ion   46
    1    -1.11951    -0.00106     0.00243
    2     0.00737    -5.52781     0.02016
    3    -0.00021     0.00543    -2.89308
 ion   47
    1    -1.12299     0.00483    -0.00128
    2     0.00346    -5.55118    -0.00127
    3     0.00004    -0.00684    -2.89561
 ion   48
    1    -1.12884    -0.00340    -0.00386
    2     0.00517    -5.53340     0.02471
    3    -0.00114     0.00099    -2.89304
 ion   49
    1    -1.12299     0.00007     0.00004
    2    -0.00002    -5.40396     0.05891
    3     0.00005     0.04019    -2.81450
 ion   50
    1    -1.12151     0.00002    -0.00001
    2    -0.00006    -5.53708    -0.08671
    3    -0.00001    -0.03782    -2.84350
 ion   51
    1    -1.12096     0.00003     0.00002
    2     0.00003    -5.58329     0.10334
    3     0.00000     0.04956    -2.95353
 ion   52
    1    -1.11948     0.00111    -0.00242
    2    -0.00734    -5.52784     0.02018
    3     0.00022     0.00541    -2.89306
 ion   53
    1    -1.12300    -0.00475     0.00133
    2    -0.00339    -5.55114    -0.00131
    3     0.00001    -0.00688    -2.89557
 ion   54
    1    -1.12883     0.00346     0.00389
    2    -0.00516    -5.53352     0.02467
    3     0.00120     0.00096    -2.89305
 ion   55
    1    -1.12313    -0.01313    -0.00023
    2     0.00391    -5.52235    -0.01665
    3    -0.00052    -0.01606    -2.89301
 ion   56
    1    -1.11275     0.00577    -0.00356
    2    -0.00139    -5.54247     0.02972
    3    -0.00248     0.01357    -2.89985
 ion   57
    1    -1.12514    -0.00420    -0.00256
    2    -0.00819    -5.53228     0.03816
    3     0.00488    -0.00231    -2.89506
 ion   58
    1    -1.11889    -0.00002     0.00002
    2    -0.00003    -5.43741    -0.03753
    3    -0.00001    -0.33731    -2.89019
 ion   59
    1    -1.16437     0.00001    -0.00005
    2     0.00010    -4.96163    -0.52428
    3    -0.00001    -0.55048    -2.96140
 ion   60
    1    -1.02001    -0.00000     0.00000
    2    -0.00004    -5.65281    -0.49241
    3    -0.00000    -0.53257    -2.73005
 ion   61
    1    -1.12316     0.01305     0.00021
    2    -0.00394    -5.52243    -0.01665
    3     0.00051    -0.01608    -2.89302
 ion   62
    1    -1.11273    -0.00585     0.00359
    2     0.00131    -5.54242     0.02971
    3     0.00248     0.01355    -2.89986
 ion   63
    1    -1.12513     0.00415     0.00256
    2     0.00821    -5.53227     0.03804
    3    -0.00489    -0.00238    -2.89503
 ion   64
    1    -5.53762    -0.00001     0.00002
    2    -0.00000    -1.12020    -0.00198
    3    -0.00001    -0.00303    -2.89296
 ion   65
    1    -5.53248     0.00001    -0.00004
    2     0.00005    -1.13139    -0.00591
    3     0.00000     0.00129    -2.89078
 ion   66
    1    -5.54108     0.00005    -0.00000
    2     0.00005    -1.11721    -0.00238
    3     0.00000     0.00130    -2.89624
 ion   67
    1    -5.53692     0.00664     0.00148
    2    -0.00824    -1.11757    -0.00564
    3    -0.00204    -0.00980    -2.89199
 ion   68
    1    -5.51092    -0.00422    -0.03467
    2     0.11126    -1.14010    -0.04335
    3     0.02869     0.00567    -2.89201
 ion   69
    1    -5.56587    -0.00354     0.04316
    2     0.07382    -1.11145    -0.03063
    3    -0.04777     0.00687    -2.88569
 ion   70
    1    -5.53688    -0.00655    -0.00145
    2     0.00835    -1.11763    -0.00562
    3     0.00207    -0.00983    -2.89200
 ion   71
    1    -5.51097     0.00431     0.03468
    2    -0.11120    -1.14010    -0.04336
    3    -0.02864     0.00567    -2.89202
 ion   72
    1    -5.56590     0.00353    -0.04316
    2    -0.07377    -1.11149    -0.03063
    3     0.04775     0.00689    -2.88566
 ion   73
    1    -5.53644     0.00092    -0.00034
    2    -0.00049    -1.12067     0.00131
    3    -0.00038     0.00191    -2.89358
 ion   74
    1    -5.54093    -0.00001     0.00379
    2     0.02116    -1.13000    -0.00813
    3     0.01117    -0.00024    -2.88847
 ion   75
    1    -5.53160    -0.00060    -0.00527
    2     0.01373    -1.11898    -0.00567
    3    -0.01272    -0.00157    -2.89812
 ion   76
    1    -5.53525    -0.00001     0.00003
    2    -0.00003    -1.11912    -0.00637
    3     0.00001     0.00337    -2.89155
 ion   77
    1    -5.59921     0.00002     0.00003
    2     0.00003    -1.15045    -0.12201
    3     0.00005     0.00216    -2.91627
 ion   78
    1    -5.45931     0.00002     0.00002
    2    -0.00001    -1.09570    -0.08378
    3    -0.00003    -0.00097    -2.83745
 ion   79
    1    -5.53643    -0.00092     0.00036
    2     0.00045    -1.12066     0.00132
    3     0.00038     0.00191    -2.89356
 ion   80
    1    -5.54098    -0.00000    -0.00380
    2    -0.02121    -1.12997    -0.00817
    3    -0.01119    -0.00022    -2.88849
 ion   81
    1    -5.53166     0.00052     0.00531
    2    -0.01379    -1.11899    -0.00567
    3     0.01277    -0.00158    -2.89811
 ion   82
    1    -1.12220     0.00004    -0.00001
    2    -0.00000    -5.53067     0.00726
    3    -0.00003    -0.00297    -2.89267
 ion   83
    1    -1.12020     0.00012    -0.00002
    2     0.00009    -5.53846    -0.01507
    3    -0.00001     0.00317    -2.89826
 ion   84
    1    -1.12289     0.00003     0.00000
    2     0.00001    -5.53906    -0.01730
    3     0.00000    -0.00175    -2.88862
 ion   85
    1    -1.12316    -0.00808     0.00011
    2     0.00168    -5.52286     0.01841
    3    -0.00084    -0.01355    -2.89334
 ion   86
    1    -1.12527     0.00501     0.00385
    2    -0.00314    -5.55650    -0.03825
    3     0.00869     0.02108    -2.90267
 ion   87
    1    -1.12407     0.00943    -0.00205
    2    -0.00798    -5.51275    -0.04836
    3     0.00135    -0.00782    -2.87503
 ion   88
    1    -1.12316     0.00817    -0.00011
    2    -0.00165    -5.52300     0.01837
    3     0.00083    -0.01359    -2.89336
 ion   89
    1    -1.12527    -0.00494    -0.00383
    2     0.00316    -5.55644    -0.03823
    3    -0.00871     0.02114    -2.90269
 ion   90
    1    -1.12409    -0.00933     0.00203
    2     0.00798    -5.51279    -0.04829
    3    -0.00137    -0.00781    -2.87503
 ion   91
    1    -1.12107     0.00001     0.00002
    2     0.00001    -5.53269    -0.01251
    3    -0.00001    -0.00042    -2.89760
 ion   92
    1    -1.12214    -0.00004    -0.00001
    2    -0.00004    -5.54512     0.00090
    3    -0.00003     0.00131    -2.89171
 ion   93
    1    -1.12376    -0.00007     0.00001
    2    -0.00001    -5.53526    -0.01424
    3    -0.00001    -0.00108    -2.88983
 ion   94
    1    -1.12631    -0.00386     0.00321
    2     0.00495    -5.52843    -0.02900
    3    -0.00238    -0.00131    -2.90529
 ion   95
    1    -1.12425     0.00853     0.00218
    2     0.00045    -5.55509    -0.00537
    3     0.00030     0.00614    -2.88819
 ion   96
    1    -1.11977    -0.00442    -0.00297
    2     0.00342    -5.53316    -0.03531
    3     0.00273    -0.00378    -2.88014
 ion   97
    1    -1.12630     0.00383    -0.00318
    2    -0.00493    -5.52846    -0.02906
    3     0.00233    -0.00133    -2.90532
 ion   98
    1    -1.12424    -0.00859    -0.00215
    2    -0.00045    -5.55511    -0.00538
    3    -0.00031     0.00620    -2.88815
 ion   99
    1    -1.11976     0.00446     0.00299
    2    -0.00340    -5.53324    -0.03531
    3    -0.00277    -0.00385    -2.88021
 ion  100
    1    -5.53547     0.00154    -0.00251
    2    -0.00611    -1.12799    -0.00340
    3    -0.02088     0.00016    -2.88774
 ion  101
    1    -5.53529    -0.00409     0.00153
    2    -0.01038    -1.12573    -0.00136
    3    -0.00000    -0.00434    -2.89118
 ion  102
    1    -5.53629     0.00089     0.00407
    2    -0.01589    -1.11574    -0.00783
    3     0.02068    -0.00197    -2.90537
 ion  103
    1    -5.61622    -0.00002    -0.00000
    2     0.00005    -1.11393    -0.03042
    3     0.00003    -0.01664    -2.90168
 ion  104
    1    -5.58295     0.00003    -0.00003
    2     0.00006    -1.10987    -0.12669
    3    -0.00003    -0.18261    -2.78750
 ion  105
    1    -5.45124    -0.00001     0.00004
    2    -0.00001    -1.12197    -0.05475
    3    -0.00000    -0.02002    -2.89703
 ion  106
    1    -5.53546    -0.00150     0.00260
    2     0.00622    -1.12800    -0.00340
    3     0.02090     0.00018    -2.88775
 ion  107
    1    -5.53534     0.00410    -0.00146
    2     0.01047    -1.12573    -0.00145
    3     0.00006    -0.00440    -2.89118
 ion  108
    1    -5.53618    -0.00086    -0.00405
    2     0.01597    -1.11571    -0.00783
    3    -0.02067    -0.00196    -2.90534


--------------------------------------------------------------------------------------------------------


     LOOP+:  cpu time   2394.1013: real time   2430.5230
    4ORBIT:  cpu time      0.0000: real time      0.0000

 total amount of memory used by VASP MPI-rank0   266724. kBytes
=======================================================================

   base      :      30000. kBytes
   nonlr-proj:      19555. kBytes
   fftplans  :      10927. kBytes
   grid      :      23181. kBytes
   one-center:       1679. kBytes
   wavefun   :     181382. kBytes



 General timing and accounting informations for this job:
 ========================================================

                  Total CPU time used (sec):     2405.101
                            User time (sec):     2331.092
                          System time (sec):       74.010
                         Elapsed time (sec):     2450.269

                   Maximum memory used (kb):     1087688.
                   Average memory used (kb):          N/A

                          Minor page faults:       983501
                          Major page faults:           13
                 Voluntary context switches:       104448
