 vasp.6.3.0 20Jan22 (build Mar 29 2022 16:24:06) complex

 executed on             Bridges2 date 2023.01.10  17:42:34
 running on   32 total cores
 distrk:  each k-point on    4 cores,    8 groups
 distr:  one band on NCORE=   1 cores,    4 groups


--------------------------------------------------------------------------------------------------------


 INCAR:
   ICHARG = 2
   LWAVE = .FALSE.
   LCHARG = .FALSE.
   LVTOT = .FALSE.
   NCORE = 1
   KPAR = 8
   EDIFF = 1E-7
   NELM = 80
   PREC = Normal
   LREAL = Auto
   NELMIN = 4
   ENCUT = 400.0 eV
   ISPIN = 1
   ISMEAR = 0
   SIGMA = 0.10
   NSW = 0
   LEPSILON = .TRUE.
   LPEAD = .TRUE.
   ISYM = 0

 POTCAR:    PAW_PBE Ti_pv 07Sep2000
 POTCAR:    PAW_PBE O 08Apr2002
 -----------------------------------------------------------------------------
|                                                                             |
|           W    W    AA    RRRRR   N    N  II  N    N   GGGG   !!!           |
|           W    W   A  A   R    R  NN   N  II  NN   N  G    G  !!!           |
|           W    W  A    A  R    R  N N  N  II  N N  N  G       !!!           |
|           W WW W  AAAAAA  RRRRR   N  N N  II  N  N N  G  GGG   !            |
|           WW  WW  A    A  R   R   N   NN  II  N   NN  G    G                |
|           W    W  A    A  R    R  N    N  II  N    N   GGGG   !!!           |
|                                                                             |
|     For optimal performance we recommend to set                             |
|       NCORE = 2 up to number-of-cores-per-socket                            |
|     NCORE specifies how many cores store one orbital (NPAR=cpu/NCORE).      |
|     This setting can greatly improve the performance of VASP for DFT.       |
|     The default, NCORE=1 might be grossly inefficient on modern             |
|     multi-core architectures or massively parallel machines. Do your        |
|     own testing! More info at https://www.vasp.at/wiki/index.php/NCORE      |
|     Unfortunately you need to use the default for GW and RPA                |
|     calculations (for HF NCORE is supported but not extensively tested      |
|     yet).                                                                   |
|                                                                             |
 -----------------------------------------------------------------------------

 POTCAR:    PAW_PBE Ti_pv 07Sep2000
   VRHFIN =Ti: d3 s1
   LEXCH  = PE
   EATOM  =  1042.5995 eV,   76.6289 Ry

   TITEL  = PAW_PBE Ti_pv 07Sep2000
   LULTRA =        F    use ultrasoft PP ?
   IUNSCR =        1    unscreen: 0-lin 1-nonlin 2-no
   RPACOR =    2.200    partial core radius
   POMASS =   47.880; ZVAL   =   10.000    mass and valenz
   RCORE  =    2.500    outmost cutoff radius
   RWIGS  =    2.500; RWIGS  =    1.323    wigner-seitz radius (au A)
   ENMAX  =  222.335; ENMIN  =  166.751 eV
   RCLOC  =    1.701    cutoff for local pot
   LCOR   =        T    correct aug charges
   LPAW   =        T    paw PP
   EAUG   =  482.848
   DEXC   =    0.000
   RMAX   =    2.564    core radius for proj-oper
   RAUG   =    1.300    factor for augmentation sphere
   RDEP   =    2.538    radius for radial grids
   RDEPT  =    1.952    core radius for aug-charge

   Atomic configuration
    8 entries
     n  l   j            E        occ.
     1  0  0.50     -4865.3608   2.0000
     2  0  0.50      -533.1368   2.0000
     2  1  1.50      -440.5031   6.0000
     3  0  0.50       -59.3186   2.0000
     3  1  1.50       -35.7012   6.0000
     3  2  2.50        -1.9157   3.0000
     4  0  0.50        -3.7291   1.0000
     4  3  2.50        -1.3606   0.0000
   Description
     l       E           TYP  RCUT    TYP  RCUT
     1    -35.7012140     23  2.300
     1     -1.3605826     23  2.300
     2     -1.9156996     23  2.500
     2     -0.4063033     23  2.500
     0     -3.7290856     23  2.500
     0     20.4087390     23  2.500
  local pseudopotential read in
  partial core-charges read in
  partial kinetic energy density read in
  atomic valenz-charges read in
  non local Contribution for L=           1  read in
    real space projection operators read in
  non local Contribution for L=           1  read in
    real space projection operators read in
  non local Contribution for L=           2  read in
    real space projection operators read in
  non local Contribution for L=           2  read in
    real space projection operators read in
  non local Contribution for L=           0  read in
    real space projection operators read in
  non local Contribution for L=           0  read in
    real space projection operators read in
    PAW grid and wavefunctions read in

   number of l-projection  operators is LMAX  =           6
   number of lm-projection operators is LMMAX =          18

 POTCAR:    PAW_PBE O 08Apr2002
   VRHFIN =O: s2p4
   LEXCH  = PE
   EATOM  =   432.3788 eV,   31.7789 Ry

   TITEL  = PAW_PBE O 08Apr2002
   LULTRA =        F    use ultrasoft PP ?
   IUNSCR =        1    unscreen: 0-lin 1-nonlin 2-no
   RPACOR =    1.200    partial core radius
   POMASS =   16.000; ZVAL   =    6.000    mass and valenz
   RCORE  =    1.520    outmost cutoff radius
   RWIGS  =    1.550; RWIGS  =    0.820    wigner-seitz radius (au A)
   ENMAX  =  400.000; ENMIN  =  300.000 eV
   ICORE  =        2    local potential
   LCOR   =        T    correct aug charges
   LPAW   =        T    paw PP
   EAUG   =  605.392
   DEXC   =    0.000
   RMAX   =    1.553    core radius for proj-oper
   RAUG   =    1.300    factor for augmentation sphere
   RDEP   =    1.550    radius for radial grids
   RDEPT  =    1.329    core radius for aug-charge

   Atomic configuration
    4 entries
     n  l   j            E        occ.
     1  0  0.50      -514.6923   2.0000
     2  0  0.50       -23.9615   2.0000
     2  1  0.50        -9.0305   4.0000
     3  2  1.50        -9.5241   0.0000
   Description
     l       E           TYP  RCUT    TYP  RCUT
     0    -23.9615318     23  1.200
     0     -9.5240782     23  1.200
     1     -9.0304911     23  1.520
     1      8.1634956     23  1.520
     2     -9.5240782      7  1.500
  local pseudopotential read in
  partial core-charges read in
  partial kinetic energy density read in
  kinetic energy density of atom read in
  atomic valenz-charges read in
  non local Contribution for L=           0  read in
    real space projection operators read in
  non local Contribution for L=           0  read in
    real space projection operators read in
  non local Contribution for L=           1  read in
    real space projection operators read in
  non local Contribution for L=           1  read in
    real space projection operators read in
    PAW grid and wavefunctions read in

   number of l-projection  operators is LMAX  =           4
   number of lm-projection operators is LMMAX =           8

 Optimization of the real space projectors (new method)

 maximal supplied QI-value         = 15.12
 optimisation between [QCUT,QGAM] = [ 10.13, 20.41] = [ 28.73,116.64] Ry
 Optimized for a Real-space Cutoff    1.51 Angstroem

   l    n(q)    QCUT    max X(q) W(low)/X(q) W(high)/X(q)  e(spline)
   1      9    10.129     4.216    0.12E-04    0.72E-04    0.60E-07
   1      9    10.129     5.422    0.84E-04    0.21E-03    0.15E-06
   2      8    10.129    72.084    0.33E-03    0.35E-04    0.17E-06
   2      8    10.129    65.965    0.33E-03    0.37E-04    0.17E-06
   0      9    10.129    41.531    0.17E-03    0.19E-03    0.81E-07
   0      9    10.129    16.290    0.12E-03    0.14E-03    0.64E-07
 Optimization of the real space projectors (new method)

 maximal supplied QI-value         = 24.76
 optimisation between [QCUT,QGAM] = [ 10.15, 20.30] = [ 28.85,115.39] Ry
 Optimized for a Real-space Cutoff    1.38 Angstroem

   l    n(q)    QCUT    max X(q) W(low)/X(q) W(high)/X(q)  e(spline)
   0      8    10.150    20.381    0.22E-03    0.32E-03    0.29E-06
   0      8    10.150    15.268    0.23E-03    0.35E-03    0.30E-06
   1      8    10.150     5.964    0.46E-03    0.53E-03    0.21E-06
   1      8    10.150     5.382    0.38E-03    0.45E-03    0.19E-06
  PAW_PBE Ti_pv 07Sep2000               :
 energy of atom  1       EATOM=-1042.5995
 kinetic energy error for atom=    0.0037 (will be added to EATOM!!)
  PAW_PBE O 08Apr2002                   :
 energy of atom  2       EATOM= -432.3788
 kinetic energy error for atom=    0.1156 (will be added to EATOM!!)


 POSCAR: Ti4 O8
  positions in cartesian coordinates
  No initial velocities read in
 exchange correlation table for  LEXCH =        8
   RHO(1)=    0.500       N(1)  =     2000
   RHO(2)=  100.500       N(2)  =     4000



--------------------------------------------------------------------------------------------------------


 ion  position               nearest neighbor table
   1  0.167  0.167  0.500-  56 1.94  55 1.94  40 1.94  37 1.94 100 2.00  46 2.00  31 3.06  28 3.06
                            11 3.06  10 3.06
   2  0.167  0.500  0.500-  56 1.94  41 1.94  38 1.94  57 1.94 101 2.00  47 2.00  11 3.06  32 3.06
                            29 3.06  12 3.06
   3  0.167  0.833  0.500-  57 1.94  42 1.94  39 1.94  55 1.94 102 2.00  48 2.00  12 3.06  33 3.06
                            30 3.06  10 3.06
   4  0.500  0.167  0.500-  40 1.94  59 1.94  58 1.94  43 1.94 103 2.00  49 2.00  31 3.06  14 3.06
                            13 3.06  34 3.06
   5  0.500  0.491  0.500-  59 1.84  41 1.94  44 1.94 104 2.00  50 2.00  60 2.04  14 3.00  32 3.06
                            35 3.06  15 3.12
   6  0.500  0.833  0.500-  60 1.94  42 1.94  58 1.94  45 1.94 105 2.00  51 2.00  15 3.06  33 3.06
                            13 3.06  36 3.06
   7  0.833  0.167  0.500-  43 1.94  62 1.94  61 1.94  37 1.94 106 2.00  52 2.00  34 3.06  17 3.06
                            16 3.06  28 3.06
   8  0.833  0.500  0.500-  44 1.94  62 1.94  63 1.94  38 1.94 107 2.00  53 2.00  35 3.06  17 3.06
                            29 3.06  18 3.06
   9  0.833  0.833  0.500-  63 1.94  45 1.94  61 1.94  39 1.94 108 2.00  54 2.00  36 3.06  18 3.06
                            30 3.06  16 3.06
  10  0.167  0.000  0.750-  67 1.94  64 1.94  46 1.94  48 1.94  73 2.00  55 2.00  22 3.06  19 3.06
                             1 3.06   3 3.06
  11  0.167  0.333  0.750-  47 1.94  46 1.94  68 1.94  65 1.94  74 2.00  56 2.00   2 3.06  23 3.06
                            20 3.06   1 3.06
  12  0.167  0.667  0.750-  48 1.94  69 1.94  66 1.94  47 1.94  75 2.00  57 2.00   3 3.06  24 3.06
                            21 3.06   2 3.06
  13  0.500  0.000  0.750-  67 1.94  49 1.94  51 1.94  70 1.94  76 2.00  58 2.00  22 3.06   4 3.06
                            25 3.06   6 3.06
  14  0.500  0.333  0.750-  50 1.94  68 1.94  49 1.94  71 1.94  77 2.00  59 2.00   5 3.00  23 3.06
                             4 3.06  26 3.06
  15  0.500  0.667  0.750-  51 1.94  69 1.94  50 1.94  72 1.94  78 2.00  60 2.00   6 3.06  24 3.06
                            27 3.06   5 3.12
  16  0.833  0.000  0.750-  70 1.94  52 1.94  64 1.94  54 1.94  79 2.00  61 2.00  25 3.06   7 3.06
                            19 3.06   9 3.06
  17  0.833  0.333  0.750-  71 1.94  53 1.94  52 1.94  65 1.94  80 2.00  62 2.00  26 3.06   8 3.06
                             7 3.06  20 3.06
  18  0.833  0.667  0.750-  54 1.94  72 1.94  66 1.94  53 1.94  81 2.00  63 2.00  27 3.06   9 3.06
                            21 3.06   8 3.06
  19  0.000  0.000  0.000-  73 1.94  91 1.94  79 1.94  93 1.94  82 2.00  64 2.00  10 3.06  28 3.06
                            16 3.06  30 3.06
  20  0.000  0.333  0.000-  92 1.94  74 1.94  91 1.94  80 1.94  83 2.00  65 2.00  29 3.06  11 3.06
                            28 3.06  17 3.06
  21  0.000  0.667  0.000-  93 1.94  75 1.94  81 1.94  92 1.94  84 2.00  66 2.00  30 3.06  12 3.06
                            18 3.06  29 3.06
  22  0.333  0.000  0.000-  76 1.94  73 1.94  94 1.94  96 1.94  85 2.00  67 2.00  13 3.06  10 3.06
                            31 3.06  33 3.06
  23  0.333  0.333  0.000-  77 1.94  95 1.94  74 1.94  94 1.94  86 2.00  68 2.00  14 3.06  32 3.06
                            11 3.06  31 3.06
  24  0.333  0.667  0.000-  96 1.94  78 1.94  75 1.94  95 1.94  87 2.00  69 2.00  33 3.06  15 3.06
                            12 3.06  32 3.06
  25  0.667  0.000  0.000-  79 1.94  97 1.94  76 1.94  99 1.94  88 2.00  70 2.00  16 3.06  34 3.06
                            13 3.06  36 3.06
  26  0.667  0.333  0.000-  80 1.94  98 1.94  97 1.94  77 1.94  89 2.00  71 2.00  17 3.06  35 3.06
                            34 3.06  14 3.06
  27  0.667  0.667  0.000-  81 1.94  99 1.94  78 1.94  98 1.94  90 2.00  72 2.00  18 3.06  36 3.06
                            15 3.06  35 3.06
  28  0.000  0.167  0.250-  83 1.94  82 1.94 100 1.94 106 1.94  37 2.00  91 2.00   1 3.06  20 3.06
                            19 3.06   7 3.06
  29  0.000  0.500  0.250-  83 1.94 101 1.94  84 1.94 107 1.94  38 2.00  92 2.00  20 3.06   2 3.06
                             8 3.06  21 3.06
  30  0.000  0.833  0.250-  84 1.94 102 1.94  82 1.94 108 1.94  39 2.00  93 2.00  21 3.06   3 3.06
                             9 3.06  19 3.06
  31  0.333  0.167  0.250- 103 1.94  86 1.94  85 1.94 100 1.94  40 2.00  94 2.00   4 3.06   1 3.06
                            23 3.06  22 3.06
  32  0.333  0.500  0.250-  86 1.94 104 1.94 101 1.94  87 1.94  41 2.00  95 2.00  23 3.06   2 3.06
                            24 3.06   5 3.06
  33  0.333  0.833  0.250-  87 1.94 105 1.94 102 1.94  85 1.94  42 2.00  96 2.00  24 3.06   6 3.06
                             3 3.06  22 3.06
  34  0.667  0.167  0.250- 106 1.94  89 1.94  88 1.94 103 1.94  43 2.00  97 2.00   7 3.06  26 3.06
                            25 3.06   4 3.06
  35  0.667  0.500  0.250- 107 1.94  89 1.94  90 1.94 104 1.94  44 2.00  98 2.00   8 3.06  26 3.06
                            27 3.06   5 3.06
  36  0.667  0.833  0.250-  90 1.94 108 1.94  88 1.94 105 1.94  45 2.00  99 2.00   9 3.06  27 3.06
                            25 3.06   6 3.06
  37  0.000  0.167  0.458-   1 1.94   7 1.94  28 2.00
  38  0.000  0.500  0.458-   2 1.94   8 1.94  29 2.00
  39  0.000  0.833  0.458-   3 1.94   9 1.94  30 2.00
  40  0.333  0.167  0.458-   4 1.94   1 1.94  31 2.00
  41  0.333  0.500  0.458-   2 1.94   5 1.94  32 2.00
  42  0.333  0.833  0.458-   6 1.94   3 1.94  33 2.00
  43  0.667  0.167  0.458-   7 1.94   4 1.94  34 2.00
  44  0.667  0.500  0.458-   8 1.94   5 1.94  35 2.00
  45  0.667  0.833  0.458-   9 1.94   6 1.94  36 2.00
  46  0.167  0.167  0.708-  11 1.94  10 1.94   1 2.00
  47  0.167  0.500  0.708-  11 1.94  12 1.94   2 2.00
  48  0.167  0.833  0.708-  12 1.94  10 1.94   3 2.00
  49  0.500  0.167  0.708-  14 1.94  13 1.94   4 2.00
  50  0.500  0.500  0.708-  14 1.94  15 1.94   5 2.00
  51  0.500  0.833  0.708-  15 1.94  13 1.94   6 2.00
  52  0.833  0.167  0.708-  17 1.94  16 1.94   7 2.00
  53  0.833  0.500  0.708-  17 1.94  18 1.94   8 2.00
  54  0.833  0.833  0.708-  18 1.94  16 1.94   9 2.00
  55  0.167  0.000  0.542-   1 1.94   3 1.94  10 2.00
  56  0.167  0.333  0.542-   2 1.94   1 1.94  11 2.00
  57  0.167  0.667  0.542-   3 1.94   2 1.94  12 2.00
  58  0.500  0.000  0.542-   4 1.94   6 1.94  13 2.00
  59  0.500  0.333  0.542-   5 1.84   4 1.94  14 2.00
  60  0.500  0.667  0.542-   6 1.94  15 2.00   5 2.04
  61  0.833  0.000  0.542-   7 1.94   9 1.94  16 2.00
  62  0.833  0.333  0.542-   8 1.94   7 1.94  17 2.00
  63  0.833  0.667  0.542-   9 1.94   8 1.94  18 2.00
  64  0.000  0.000  0.792-  10 1.94  16 1.94  19 2.00
  65  0.000  0.333  0.792-  11 1.94  17 1.94  20 2.00
  66  0.000  0.667  0.792-  12 1.94  18 1.94  21 2.00
  67  0.333  0.000  0.792-  13 1.94  10 1.94  22 2.00
  68  0.333  0.333  0.792-  14 1.94  11 1.94  23 2.00
  69  0.333  0.667  0.792-  15 1.94  12 1.94  24 2.00
  70  0.667  0.000  0.792-  16 1.94  13 1.94  25 2.00
  71  0.667  0.333  0.792-  17 1.94  14 1.94  26 2.00
  72  0.667  0.667  0.792-  18 1.94  15 1.94  27 2.00
  73  0.167  0.000  0.958-  22 1.94  19 1.94  10 2.00
  74  0.167  0.333  0.958-  23 1.94  20 1.94  11 2.00
  75  0.167  0.667  0.958-  24 1.94  21 1.94  12 2.00
  76  0.500  0.000  0.958-  22 1.94  25 1.94  13 2.00
  77  0.500  0.333  0.958-  23 1.94  26 1.94  14 2.00
  78  0.500  0.667  0.958-  24 1.94  27 1.94  15 2.00
  79  0.833  0.000  0.958-  25 1.94  19 1.94  16 2.00
  80  0.833  0.333  0.958-  26 1.94  20 1.94  17 2.00
  81  0.833  0.667  0.958-  27 1.94  21 1.94  18 2.00
  82  0.000  0.000  0.208-  28 1.94  30 1.94  19 2.00
  83  0.000  0.333  0.208-  29 1.94  28 1.94  20 2.00
  84  0.000  0.667  0.208-  30 1.94  29 1.94  21 2.00
  85  0.333  0.000  0.208-  31 1.94  33 1.94  22 2.00
  86  0.333  0.333  0.208-  32 1.94  31 1.94  23 2.00
  87  0.333  0.667  0.208-  33 1.94  32 1.94  24 2.00
  88  0.667  0.000  0.208-  34 1.94  36 1.94  25 2.00
  89  0.667  0.333  0.208-  35 1.94  34 1.94  26 2.00
  90  0.667  0.667  0.208-  36 1.94  35 1.94  27 2.00
  91  0.000  0.167  0.042-  20 1.94  19 1.94  28 2.00
  92  0.000  0.500  0.042-  20 1.94  21 1.94  29 2.00
  93  0.000  0.833  0.042-  21 1.94  19 1.94  30 2.00
  94  0.333  0.167  0.042-  23 1.94  22 1.94  31 2.00
  95  0.333  0.500  0.042-  23 1.94  24 1.94  32 2.00
  96  0.333  0.833  0.042-  24 1.94  22 1.94  33 2.00
  97  0.667  0.167  0.042-  26 1.94  25 1.94  34 2.00
  98  0.667  0.500  0.042-  26 1.94  27 1.94  35 2.00
  99  0.667  0.833  0.042-  27 1.94  25 1.94  36 2.00
 100  0.167  0.167  0.292-  31 1.94  28 1.94   1 2.00
 101  0.167  0.500  0.292-  32 1.94  29 1.94   2 2.00
 102  0.167  0.833  0.292-  33 1.94  30 1.94   3 2.00
 103  0.500  0.167  0.292-  31 1.94  34 1.94   4 2.00
 104  0.500  0.500  0.292-  32 1.94  35 1.94   5 2.00
 105  0.500  0.833  0.292-  33 1.94  36 1.94   6 2.00
 106  0.833  0.167  0.292-  34 1.94  28 1.94   7 2.00
 107  0.833  0.500  0.292-  35 1.94  29 1.94   8 2.00
 108  0.833  0.833  0.292-  36 1.94  30 1.94   9 2.00


IMPORTANT INFORMATION: All symmetrisations will be switched off!
NOSYMM: (Re-)initialisation of all symmetry stuff for point group C_1.


----------------------------------------------------------------------------------------

                                     Primitive cell

  volume of cell :    1243.1447

  direct lattice vectors                    reciprocal lattice vectors
    11.376843452  0.000000000  0.000000000     0.087897843  0.000000000  0.000000000
     0.000000000 11.376843452  0.000000000     0.000000000  0.087897843  0.000000000
     0.000000000  0.000000000  9.604574204     0.000000000  0.000000000  0.104117057

  length of vectors
    11.376843452 11.376843452  9.604574204     0.087897843  0.087897843  0.104117057

  position of ions in fractional coordinates (direct lattice)
     0.166666672  0.166666672  0.500000000
     0.166666672  0.500000000  0.500000000
     0.166666672  0.833333313  0.500000000
     0.500000000  0.166666672  0.500000000
     0.500000000  0.491210216  0.500000000
     0.500000000  0.833333313  0.500000000
     0.833333313  0.166666672  0.500000000
     0.833333313  0.500000000  0.500000000
     0.833333313  0.833333313  0.500000000
     0.166666672  0.000000000  0.750000000
     0.166666672  0.333333343  0.750000000
     0.166666672  0.666666687  0.750000000
     0.500000000  0.000000000  0.750000000
     0.500000000  0.333333343  0.750000000
     0.500000000  0.666666687  0.750000000
     0.833333313  0.000000000  0.750000000
     0.833333313  0.333333343  0.750000000
     0.833333313  0.666666687  0.750000000
     0.000000000  0.000000000  0.000000000
     0.000000000  0.333333343  0.000000000
     0.000000000  0.666666687  0.000000000
     0.333333343  0.000000000  0.000000000
     0.333333343  0.333333343  0.000000000
     0.333333343  0.666666687  0.000000000
     0.666666687  0.000000000  0.000000000
     0.666666687  0.333333343  0.000000000
     0.666666687  0.666666687  0.000000000
     0.000000000  0.166666672  0.250000000
     0.000000000  0.500000000  0.250000000
     0.000000000  0.833333313  0.250000000
     0.333333343  0.166666672  0.250000000
     0.333333343  0.500000000  0.250000000
     0.333333343  0.833333313  0.250000000
     0.666666687  0.166666672  0.250000000
     0.666666687  0.500000000  0.250000000
     0.666666687  0.833333313  0.250000000
     0.000000000  0.166666672  0.457898587
     0.000000000  0.500000000  0.457898587
     0.000000000  0.833333313  0.457898587
     0.333333343  0.166666672  0.457898587
     0.333333343  0.500000000  0.457898587
     0.333333343  0.833333313  0.457898587
     0.666666687  0.166666672  0.457898587
     0.666666687  0.500000000  0.457898587
     0.666666687  0.833333313  0.457898587
     0.166666672  0.166666672  0.707898617
     0.166666672  0.500000000  0.707898617
     0.166666672  0.833333313  0.707898617
     0.500000000  0.166666672  0.707898617
     0.500000000  0.500000000  0.707898617
     0.500000000  0.833333313  0.707898617
     0.833333313  0.166666672  0.707898617
     0.833333313  0.500000000  0.707898617
     0.833333313  0.833333313  0.707898617
     0.166666672  0.000000000  0.542101383
     0.166666672  0.333333343  0.542101383
     0.166666672  0.666666687  0.542101383
     0.500000000  0.000000000  0.542101383
     0.500000000  0.333333343  0.542101383
     0.500000000  0.666666687  0.542101383
     0.833333313  0.000000000  0.542101383
     0.833333313  0.333333343  0.542101383
     0.833333313  0.666666687  0.542101383
     0.000000000  0.000000000  0.792101383
     0.000000000  0.333333343  0.792101383
     0.000000000  0.666666687  0.792101383
     0.333333343  0.000000000  0.792101383
     0.333333343  0.333333343  0.792101383
     0.333333343  0.666666687  0.792101383
     0.666666687  0.000000000  0.792101383
     0.666666687  0.333333343  0.792101383
     0.666666687  0.666666687  0.792101383
     0.166666672  0.000000000  0.957898617
     0.166666672  0.333333343  0.957898617
     0.166666672  0.666666687  0.957898617
     0.500000000  0.000000000  0.957898617
     0.500000000  0.333333343  0.957898617
     0.500000000  0.666666687  0.957898617
     0.833333313  0.000000000  0.957898617
     0.833333313  0.333333343  0.957898617
     0.833333313  0.666666687  0.957898617
     0.000000000  0.000000000  0.207898602
     0.000000000  0.333333343  0.207898602
     0.000000000  0.666666687  0.207898602
     0.333333343  0.000000000  0.207898602
     0.333333343  0.333333343  0.207898602
     0.333333343  0.666666687  0.207898602
     0.666666687  0.000000000  0.207898602
     0.666666687  0.333333343  0.207898602
     0.666666687  0.666666687  0.207898602
     0.000000000  0.166666672  0.042101406
     0.000000000  0.500000000  0.042101406
     0.000000000  0.833333313  0.042101406
     0.333333343  0.166666672  0.042101406
     0.333333343  0.500000000  0.042101406
     0.333333343  0.833333313  0.042101406
     0.666666687  0.166666672  0.042101406
     0.666666687  0.500000000  0.042101406
     0.666666687  0.833333313  0.042101406
     0.166666672  0.166666672  0.292101413
     0.166666672  0.500000000  0.292101413
     0.166666672  0.833333313  0.292101413
     0.500000000  0.166666672  0.292101413
     0.500000000  0.500000000  0.292101413
     0.500000000  0.833333313  0.292101413
     0.833333313  0.166666672  0.292101413
     0.833333313  0.500000000  0.292101413
     0.833333313  0.833333313  0.292101413

  ion indices of the primitive-cell ions
   primitive index   ion index
                 1           1
                 2           2
                 3           3
                 4           4
                 5           5
                 6           6
                 7           7
                 8           8
                 9           9
                10          10
                11          11
                12          12
                13          13
                14          14
                15          15
                16          16
                17          17
                18          18
                19          19
                20          20
                21          21
                22          22
                23          23
                24          24
                25          25
                26          26
                27          27
                28          28
                29          29
                30          30
                31          31
                32          32
                33          33
                34          34
                35          35
                36          36
                37          37
                38          38
                39          39
                40          40
                41          41
                42          42
                43          43
                44          44
                45          45
                46          46
                47          47
                48          48
                49          49
                50          50
                51          51
                52          52
                53          53
                54          54
                55          55
                56          56
                57          57
                58          58
                59          59
                60          60
                61          61
                62          62
                63          63
                64          64
                65          65
                66          66
                67          67
                68          68
                69          69
                70          70
                71          71
                72          72
                73          73
                74          74
                75          75
                76          76
                77          77
                78          78
                79          79
                80          80
                81          81
                82          82
                83          83
                84          84
                85          85
                86          86
                87          87
                88          88
                89          89
                90          90
                91          91
                92          92
                93          93
                94          94
                95          95
                96          96
                97          97
                98          98
                99          99
               100         100
               101         101
               102         102
               103         103
               104         104
               105         105
               106         106
               107         107
               108         108

----------------------------------------------------------------------------------------



 KPOINTS: K-Points

Automatic generation of k-mesh.
 Grid dimensions read from file:
 generate k-points for:    2    2    2

 Generating k-lattice:

  Cartesian coordinates                     Fractional coordinates (reciprocal lattice)
     0.043948922  0.000000000  0.000000000     0.500000000  0.000000000  0.000000000
     0.000000000  0.043948922  0.000000000     0.000000000  0.500000000  0.000000000
     0.000000000  0.000000000  0.052058529     0.000000000  0.000000000  0.500000000

  Length of vectors
     0.043948922  0.043948922  0.052058529

  Shift w.r.t. Gamma in fractional coordinates (k-lattice)
     0.500000000  0.500000000  0.500000000


 Subroutine IBZKPT returns following result:
 ===========================================

 Found      4 irreducible k-points:

 Following reciprocal coordinates:
            Coordinates               Weight
  0.250000  0.250000  0.250000      2.000000
 -0.250000  0.250000  0.250000      2.000000
 -0.250000 -0.250000  0.250000      2.000000
  0.250000 -0.250000  0.250000      2.000000

 Following cartesian coordinates:
            Coordinates               Weight
  0.021974  0.021974  0.026029      2.000000
 -0.021974  0.021974  0.026029      2.000000
 -0.021974 -0.021974  0.026029      2.000000
  0.021974 -0.021974  0.026029      2.000000


 Subroutine IBZKPT_HF returns following result:
 ==============================================

 Found      8 k-points in 1st BZ
 the following      8 k-points will be used (e.g. in the exchange kernel)
 Following reciprocal coordinates:   # in IRBZ
  0.250000  0.250000  0.250000    0.12500000   1 t-inv F
 -0.250000  0.250000  0.250000    0.12500000   2 t-inv F
 -0.250000 -0.250000  0.250000    0.12500000   3 t-inv F
  0.250000 -0.250000  0.250000    0.12500000   4 t-inv F
 -0.250000 -0.250000 -0.250000    0.12500000   1 t-inv T
  0.250000 -0.250000 -0.250000    0.12500000   2 t-inv T
  0.250000  0.250000 -0.250000    0.12500000   3 t-inv T
 -0.250000  0.250000 -0.250000    0.12500000   4 t-inv T


--------------------------------------------------------------------------------------------------------




 Dimension of arrays:
   k-points           NKPTS =      4   k-points in BZ     NKDIM =      4   number of bands    NBANDS=    476
   number of dos      NEDOS =    301   number of ions     NIONS =    108
   non local maximal  LDIM  =      6   non local SUM 2l+1 LMDIM =     18
   total plane-waves  NPLWV = 150528
   max r-space proj   IRMAX =   1791   max aug-charges    IRDMAX=   4900
   dimension x,y,z NGX =    56 NGY =   56 NGZ =   48
   dimension x,y,z NGXF=   112 NGYF=  112 NGZF=   96
   support grid    NGXF=   112 NGYF=  112 NGZF=   96
   ions per type =              36  72
   NGX,Y,Z   is equivalent  to a cutoff of   8.18,  8.18,  8.31 a.u.
   NGXF,Y,Z  is equivalent  to a cutoff of  16.37, 16.37, 16.62 a.u.

 SYSTEM =  unknown system
 POSCAR =  Ti4 O8

 Startparameter for this run:
   NWRITE =      2    write-flag & timer
   PREC   = normal    normal or accurate (medium, high low for compatibility)
   ISTART =      0    job   : 0-new  1-cont  2-samecut
   ICHARG =      2    charge: 1-file 2-atom 10-const
   ISPIN  =      1    spin polarized calculation?
   LNONCOLLINEAR =      F non collinear calculations
   LSORBIT =      F    spin-orbit coupling
   INIWAV =      1    electr: 0-lowe 1-rand  2-diag
   LASPH  =      F    aspherical Exc in radial PAW
 Electronic Relaxation 1
   ENCUT  =  400.0 eV  29.40 Ry    5.42 a.u.  18.55 18.55 15.66*2*pi/ulx,y,z
   ENINI  =  400.0     initial cutoff
   ENAUG  =  605.4 eV  augmentation charge cutoff
   NELM   =     80;   NELMIN=  4; NELMDL= -5     # of ELM steps
   EDIFF  = 0.1E-06   stopping-criterion for ELM
   LREAL  =      T    real-space projection
   NLSPLINE    = F    spline interpolate recip. space projectors
   LCOMPAT=      F    compatible to vasp.4.4
   GGA_COMPAT  = T    GGA compatible to vasp.4.4-vasp.4.6
   LMAXPAW     = -100 max onsite density
   LMAXMIX     =    2 max onsite mixed and CHGCAR
   VOSKOWN=      0    Vosko Wilk Nusair interpolation
   ROPT   =   -0.00050  -0.00050
 Ionic relaxation
   EDIFFG = 0.1E-05   stopping-criterion for IOM
   NSW    =      0    number of steps for IOM
   NBLOCK =      1;   KBLOCK =      1    inner block; outer block
   IBRION =     -1    ionic relax: 0-MD 1-quasi-New 2-CG
   NFREE  =      0    steps in history (QN), initial steepest desc. (CG)
   ISIF   =      2    stress and relaxation
   IWAVPR =     10    prediction:  0-non 1-charg 2-wave 3-comb
   ISYM   =      0    0-nonsym 1-usesym 2-fastsym
   LCORR  =      T    Harris-Foulkes like correction to forces

   POTIM  = 0.5000    time-step for ionic-motion
   TEIN   =    0.0    initial temperature
   TEBEG  =    0.0;   TEEND  =   0.0 temperature during run
   SMASS  =  -3.00    Nose mass-parameter (am)
   estimated Nose-frequenzy (Omega)   =  0.10E-29 period in steps = 0.13E+47 mass=  -0.296E-26a.u.
   SCALEE = 1.0000    scale energy and forces
   NPACO  =    256;   APACO  = 10.0  distance and # of slots for P.C.
   PSTRESS=    0.0 pullay stress

  Mass of Ions in am
   POMASS =  47.88 16.00
  Ionic Valenz
   ZVAL   =  10.00  6.00
  Atomic Wigner-Seitz radii
   RWIGS  =  -1.00 -1.00
  virtual crystal weights
   VCA    =   1.00  1.00
   NELECT =     792.0000    total number of electrons
   NUPDOWN=      -1.0000    fix difference up-down

 DOS related values:
   EMIN   =  10.00;   EMAX   =-10.00  energy-range for DOS
   EFERMI =   0.00
   ISMEAR =     0;   SIGMA  =   0.10  broadening in eV -4-tet -1-fermi 0-gaus

 Electronic relaxation 2 (details)
   IALGO  =     38    algorithm
   LDIAG  =      T    sub-space diagonalisation (order eigenvalues)
   LSUBROT=      F    optimize rotation matrix (better conditioning)
   TURBO    =      0    0=normal 1=particle mesh
   IRESTART =      0    0=no restart 2=restart with 2 vectors
   NREBOOT  =      0    no. of reboots
   NMIN     =      0    reboot dimension
   EREF     =   0.00    reference energy to select bands
   IMIX   =      4    mixing-type and parameters
     AMIX     =   0.40;   BMIX     =  1.00
     AMIX_MAG =   1.60;   BMIX_MAG =  1.00
     AMIN     =   0.10
     WC   =   100.;   INIMIX=   1;  MIXPRE=   1;  MAXMIX= -45

 Intra band minimization:
   WEIMIN = 0.0000     energy-eigenvalue tresh-hold
   EBREAK =  0.53E-10  absolut break condition
   DEPER  =   0.30     relativ break condition

   TIME   =   0.40     timestep for ELM

  volume/ion in A,a.u.               =      11.51        77.68
  Fermi-wavevector in a.u.,A,eV,Ry     =   1.408670  2.662001 26.998745  1.984352
  Thomas-Fermi vector in A             =   2.530804

 Write flags
   LWAVE        =      F    write WAVECAR
   LDOWNSAMPLE  =      F    k-point downsampling of WAVECAR
   LCHARG       =      F    write CHGCAR
   LVTOT        =      F    write LOCPOT, total local potential
   LVHAR        =      F    write LOCPOT, Hartree potential only
   LELF         =      F    write electronic localiz. function (ELF)
   LORBIT       =      0    0 simple, 1 ext, 2 COOP (PROOUT), +10 PAW based schemes


 Dipole corrections
   LMONO  =      F    monopole corrections only (constant potential shift)
   LDIPOL =      F    correct potential (dipole corrections)
   IDIPOL =      0    1-x, 2-y, 3-z, 4-all directions
   EPSILON=  1.0000000 bulk dielectric constant

 Exchange correlation treatment:
   GGA     =    --    GGA type
   LEXCH   =     8    internal setting for exchange type
   LIBXC   =     F    Libxc
   VOSKOWN =     0    Vosko Wilk Nusair interpolation
   LHFCALC =     F    Hartree Fock is set to
   LHFONE  =     F    Hartree Fock one center treatment
   AEXX    =    0.0000 exact exchange contribution

 Linear response parameters
   LEPSILON=     T    determine dielectric tensor
   LRPA    =     F    only Hartree local field effects (RPA)
   LNABLA  =     F    use nabla operator in PAW spheres
   LVEL    =     F    velocity operator in full k-point grid
   CSHIFT  =0.1000    complex shift for real part using Kramers Kronig
   OMEGAMAX=  -1.0    maximum frequency
   DEG_THRESHOLD= 0.2000000E-02 threshold for treating states as degnerate
   RTIME   =   -0.100 relaxation time in fs
  (WPLASMAI=    0.000 imaginary part of plasma frequency in eV, 0.658/RTIME)
   DFIELD  = 0.0000000 0.0000000 0.0000000 field for delta impulse in time

  Optional k-point grid parameters
   LKPOINTS_OPT  =     F    use optional k-point grid
   KPOINTS_OPT_MODE=     1    mode for optional k-point grid

 Orbital magnetization related:
   ORBITALMAG=     F  switch on orbital magnetization
   LCHIMAG   =     F  perturbation theory with respect to B field
   DQ        =  0.001000  dq finite difference perturbation B field
   LLRAUG    =     F  two centre corrections for induced B field

 PEAD related settings:
   LPEAD      =     T    switch on PEAD
   IPEAD      =     4    finite difference order for dpsi/dk
   LCALCPOL   =     F    calculate macroscopic polarization
   LCALCEPS   =     F    calculate dielectric tensor
   EFIELD_PEAD=    0.0000    0.0000    0.0000
   SKIP_EDOTP =     F
   LRPA       =     F
   SKIP_SCF   =     F


--------------------------------------------------------------------------------------------------------


 Static calculation
 charge density and potential will be updated during run
 non-spin polarized calculation
 Variant of blocked Davidson
 Davidson routine will perform the subspace rotation
 perform sub-space diagonalisation
    after iterative eigenvector-optimisation
 modified Broyden-mixing scheme, WC =      100.0
 initial mixing is a Kerker type mixing with AMIX =  0.4000 and BMIX =      1.0000
 Hartree-type preconditioning will be used
 using additional bands           80
 real space projection scheme for non local part
 use partial core corrections
 calculate Harris-corrections to forces
   (improved forces if not selfconsistent)
 use gradient corrections
 use of overlap-Matrix (Vanderbilt PP)
 Gauss-broadening in eV      SIGMA  =   0.10


--------------------------------------------------------------------------------------------------------


  energy-cutoff  :      400.00
  volume of cell :     1243.14
      direct lattice vectors                 reciprocal lattice vectors
    11.376843452  0.000000000  0.000000000     0.087897843  0.000000000  0.000000000
     0.000000000 11.376843452  0.000000000     0.000000000  0.087897843  0.000000000
     0.000000000  0.000000000  9.604574204     0.000000000  0.000000000  0.104117057

  length of vectors
    11.376843452 11.376843452  9.604574204     0.087897843  0.087897843  0.104117057



 k-points in units of 2pi/SCALE and weight: K-Points
   0.02197446  0.02197446  0.02602926       0.250
  -0.02197446  0.02197446  0.02602926       0.250
  -0.02197446 -0.02197446  0.02602926       0.250
   0.02197446 -0.02197446  0.02602926       0.250

 k-points in reciprocal lattice and weights: K-Points
   0.25000000  0.25000000  0.25000000       0.250
  -0.25000000  0.25000000  0.25000000       0.250
  -0.25000000 -0.25000000  0.25000000       0.250
   0.25000000 -0.25000000  0.25000000       0.250

 position of ions in fractional coordinates (direct lattice)
   0.16666667  0.16666667  0.50000000
   0.16666667  0.50000000  0.50000000
   0.16666667  0.83333331  0.50000000
   0.50000000  0.16666667  0.50000000
   0.50000000  0.49121022  0.50000000
   0.50000000  0.83333331  0.50000000
   0.83333331  0.16666667  0.50000000
   0.83333331  0.50000000  0.50000000
   0.83333331  0.83333331  0.50000000
   0.16666667  0.00000000  0.75000000
   0.16666667  0.33333334  0.75000000
   0.16666667  0.66666669  0.75000000
   0.50000000  0.00000000  0.75000000
   0.50000000  0.33333334  0.75000000
   0.50000000  0.66666669  0.75000000
   0.83333331  0.00000000  0.75000000
   0.83333331  0.33333334  0.75000000
   0.83333331  0.66666669  0.75000000
   0.00000000  0.00000000  0.00000000
   0.00000000  0.33333334  0.00000000
   0.00000000  0.66666669  0.00000000
   0.33333334  0.00000000  0.00000000
   0.33333334  0.33333334  0.00000000
   0.33333334  0.66666669  0.00000000
   0.66666669  0.00000000  0.00000000
   0.66666669  0.33333334  0.00000000
   0.66666669  0.66666669  0.00000000
   0.00000000  0.16666667  0.25000000
   0.00000000  0.50000000  0.25000000
   0.00000000  0.83333331  0.25000000
   0.33333334  0.16666667  0.25000000
   0.33333334  0.50000000  0.25000000
   0.33333334  0.83333331  0.25000000
   0.66666669  0.16666667  0.25000000
   0.66666669  0.50000000  0.25000000
   0.66666669  0.83333331  0.25000000
   0.00000000  0.16666667  0.45789859
   0.00000000  0.50000000  0.45789859
   0.00000000  0.83333331  0.45789859
   0.33333334  0.16666667  0.45789859
   0.33333334  0.50000000  0.45789859
   0.33333334  0.83333331  0.45789859
   0.66666669  0.16666667  0.45789859
   0.66666669  0.50000000  0.45789859
   0.66666669  0.83333331  0.45789859
   0.16666667  0.16666667  0.70789862
   0.16666667  0.50000000  0.70789862
   0.16666667  0.83333331  0.70789862
   0.50000000  0.16666667  0.70789862
   0.50000000  0.50000000  0.70789862
   0.50000000  0.83333331  0.70789862
   0.83333331  0.16666667  0.70789862
   0.83333331  0.50000000  0.70789862
   0.83333331  0.83333331  0.70789862
   0.16666667  0.00000000  0.54210138
   0.16666667  0.33333334  0.54210138
   0.16666667  0.66666669  0.54210138
   0.50000000  0.00000000  0.54210138
   0.50000000  0.33333334  0.54210138
   0.50000000  0.66666669  0.54210138
   0.83333331  0.00000000  0.54210138
   0.83333331  0.33333334  0.54210138
   0.83333331  0.66666669  0.54210138
   0.00000000  0.00000000  0.79210138
   0.00000000  0.33333334  0.79210138
   0.00000000  0.66666669  0.79210138
   0.33333334  0.00000000  0.79210138
   0.33333334  0.33333334  0.79210138
   0.33333334  0.66666669  0.79210138
   0.66666669  0.00000000  0.79210138
   0.66666669  0.33333334  0.79210138
   0.66666669  0.66666669  0.79210138
   0.16666667  0.00000000  0.95789862
   0.16666667  0.33333334  0.95789862
   0.16666667  0.66666669  0.95789862
   0.50000000  0.00000000  0.95789862
   0.50000000  0.33333334  0.95789862
   0.50000000  0.66666669  0.95789862
   0.83333331  0.00000000  0.95789862
   0.83333331  0.33333334  0.95789862
   0.83333331  0.66666669  0.95789862
   0.00000000  0.00000000  0.20789860
   0.00000000  0.33333334  0.20789860
   0.00000000  0.66666669  0.20789860
   0.33333334  0.00000000  0.20789860
   0.33333334  0.33333334  0.20789860
   0.33333334  0.66666669  0.20789860
   0.66666669  0.00000000  0.20789860
   0.66666669  0.33333334  0.20789860
   0.66666669  0.66666669  0.20789860
   0.00000000  0.16666667  0.04210141
   0.00000000  0.50000000  0.04210141
   0.00000000  0.83333331  0.04210141
   0.33333334  0.16666667  0.04210141
   0.33333334  0.50000000  0.04210141
   0.33333334  0.83333331  0.04210141
   0.66666669  0.16666667  0.04210141
   0.66666669  0.50000000  0.04210141
   0.66666669  0.83333331  0.04210141
   0.16666667  0.16666667  0.29210141
   0.16666667  0.50000000  0.29210141
   0.16666667  0.83333331  0.29210141
   0.50000000  0.16666667  0.29210141
   0.50000000  0.50000000  0.29210141
   0.50000000  0.83333331  0.29210141
   0.83333331  0.16666667  0.29210141
   0.83333331  0.50000000  0.29210141
   0.83333331  0.83333331  0.29210141

 position of ions in cartesian coordinates  (Angst):
   1.89614063  1.89614063  4.80228710
   1.89614063  5.68842173  4.80228710
   1.89614063  9.48070265  4.80228710
   5.68842173  1.89614063  4.80228710
   5.68842173  5.58842173  4.80228710
   5.68842173  9.48070265  4.80228710
   9.48070265  1.89614063  4.80228710
   9.48070265  5.68842173  4.80228710
   9.48070265  9.48070265  4.80228710
   1.89614063  0.00000000  7.20343065
   1.89614063  3.79228126  7.20343065
   1.89614063  7.58456253  7.20343065
   5.68842173  0.00000000  7.20343065
   5.68842173  3.79228126  7.20343065
   5.68842173  7.58456253  7.20343065
   9.48070265  0.00000000  7.20343065
   9.48070265  3.79228126  7.20343065
   9.48070265  7.58456253  7.20343065
   0.00000000  0.00000000  0.00000000
   0.00000000  3.79228126  0.00000000
   0.00000000  7.58456253  0.00000000
   3.79228126  0.00000000  0.00000000
   3.79228126  3.79228126  0.00000000
   3.79228126  7.58456253  0.00000000
   7.58456253  0.00000000  0.00000000
   7.58456253  3.79228126  0.00000000
   7.58456253  7.58456253  0.00000000
   0.00000000  1.89614063  2.40114355
   0.00000000  5.68842173  2.40114355
   0.00000000  9.48070265  2.40114355
   3.79228126  1.89614063  2.40114355
   3.79228126  5.68842173  2.40114355
   3.79228126  9.48070265  2.40114355
   7.58456253  1.89614063  2.40114355
   7.58456253  5.68842173  2.40114355
   7.58456253  9.48070265  2.40114355
   0.00000000  1.89614063  4.39792096
   0.00000000  5.68842173  4.39792096
   0.00000000  9.48070265  4.39792096
   3.79228126  1.89614063  4.39792096
   3.79228126  5.68842173  4.39792096
   3.79228126  9.48070265  4.39792096
   7.58456253  1.89614063  4.39792096
   7.58456253  5.68842173  4.39792096
   7.58456253  9.48070265  4.39792096
   1.89614063  1.89614063  6.79906479
   1.89614063  5.68842173  6.79906479
   1.89614063  9.48070265  6.79906479
   5.68842173  1.89614063  6.79906479
   5.68842173  5.68842173  6.79906479
   5.68842173  9.48070265  6.79906479
   9.48070265  1.89614063  6.79906479
   9.48070265  5.68842173  6.79906479
   9.48070265  9.48070265  6.79906479
   1.89614063  0.00000000  5.20665296
   1.89614063  3.79228126  5.20665296
   1.89614063  7.58456253  5.20665296
   5.68842173  0.00000000  5.20665296
   5.68842173  3.79228126  5.20665296
   5.68842173  7.58456253  5.20665296
   9.48070265  0.00000000  5.20665296
   9.48070265  3.79228126  5.20665296
   9.48070265  7.58456253  5.20665296
   0.00000000  0.00000000  7.60779651
   0.00000000  3.79228126  7.60779651
   0.00000000  7.58456253  7.60779651
   3.79228126  0.00000000  7.60779651
   3.79228126  3.79228126  7.60779651
   3.79228126  7.58456253  7.60779651
   7.58456253  0.00000000  7.60779651
   7.58456253  3.79228126  7.60779651
   7.58456253  7.58456253  7.60779651
   1.89614063  0.00000000  9.20020834
   1.89614063  3.79228126  9.20020834
   1.89614063  7.58456253  9.20020834
   5.68842173  0.00000000  9.20020834
   5.68842173  3.79228126  9.20020834
   5.68842173  7.58456253  9.20020834
   9.48070265  0.00000000  9.20020834
   9.48070265  3.79228126  9.20020834
   9.48070265  7.58456253  9.20020834
   0.00000000  0.00000000  1.99677755
   0.00000000  3.79228126  1.99677755
   0.00000000  7.58456253  1.99677755
   3.79228126  0.00000000  1.99677755
   3.79228126  3.79228126  1.99677755
   3.79228126  7.58456253  1.99677755
   7.58456253  0.00000000  1.99677755
   7.58456253  3.79228126  1.99677755
   7.58456253  7.58456253  1.99677755
   0.00000000  1.89614063  0.40436607
   0.00000000  5.68842173  0.40436607
   0.00000000  9.48070265  0.40436607
   3.79228126  1.89614063  0.40436607
   3.79228126  5.68842173  0.40436607
   3.79228126  9.48070265  0.40436607
   7.58456253  1.89614063  0.40436607
   7.58456253  5.68842173  0.40436607
   7.58456253  9.48070265  0.40436607
   1.89614063  1.89614063  2.80550970
   1.89614063  5.68842173  2.80550970
   1.89614063  9.48070265  2.80550970
   5.68842173  1.89614063  2.80550970
   5.68842173  5.68842173  2.80550970
   5.68842173  9.48070265  2.80550970
   9.48070265  1.89614063  2.80550970
   9.48070265  5.68842173  2.80550970
   9.48070265  9.48070265  2.80550970



--------------------------------------------------------------------------------------------------------


 k-point   1 :   0.2500 0.2500 0.2500  plane waves:   22590
 k-point   2 :  -0.2500 0.2500 0.2500  plane waves:   22590
 k-point   3 :  -0.2500-0.2500 0.2500  plane waves:   22590
 k-point   4 :   0.2500-0.2500 0.2500  plane waves:   22590

 maximum and minimum number of plane-waves per node :     22590    22590

 maximum number of plane-waves:     22590
 maximum index in each direction:
   IXMAX=   18   IYMAX=   18   IZMAX=   15
   IXMIN=  -18   IYMIN=  -18   IZMIN=  -15


 serial   3D FFT for wavefunctions
 parallel 3D FFT for charge:
    minimum data exchange during FFTs selected (reduces bandwidth)


 total amount of memory used by VASP MPI-rank0   266717. kBytes
=======================================================================

   base      :      30000. kBytes
   nonlr-proj:      19548. kBytes
   fftplans  :      10927. kBytes
   grid      :      23181. kBytes
   one-center:       1679. kBytes
   wavefun   :     181382. kBytes

     INWAV:  cpu time      0.0000: real time      0.0000
 Broyden mixing: mesh for mixing (old mesh)
   NGX = 37   NGY = 37   NGZ = 31
  (NGX  =112   NGY  =112   NGZ  = 96)
  gives a total of  42439 points

 initial charge density was supplied:
 charge density of overlapping atoms calculated
 number of electron     792.0000000 magnetization
 keeping initial charge density in first step


--------------------------------------------------------------------------------------------------------


 Maximum index for non-local projection operator         1743
 Maximum index for augmentation-charges         1189 (set IRDMAX)


--------------------------------------------------------------------------------------------------------


 First call to EWALD:  gamma=   0.165
 Maximum number of real-space cells 3x 3x 3
 Maximum number of reciprocal cells 3x 3x 3

    FEWALD:  cpu time      0.4803: real time      0.4835


--------------------------------------- Iteration      1(   1)  ---------------------------------------


    POTLOK:  cpu time      0.1925: real time      0.1999
    SETDIJ:  cpu time      0.0107: real time      0.0128
     EDDAV:  cpu time     11.7643: real time     11.9810
       DOS:  cpu time      0.0032: real time      0.0057
    --------------------------------------------
      LOOP:  cpu time     11.9706: real time     12.1993

 eigenvalue-minimisations  :  3824
 total energy-change (2. order) : 0.1155964E+05  (-0.3305622E+05)
 number of electron     792.0000000 magnetization
 augmentation part      792.0000000 magnetization

 Free energy of the ion-electron system (eV)
  ---------------------------------------------------
  alpha Z        PSCENC =      3563.47650690
  Ewald energy   TEWEN  =    -48587.85276338
  -Hartree energ DENC   =    -18841.62124442
  -exchange      EXHF   =         0.00000000
  -V(xc)+E(xc)   XCENC  =      3286.86446899
  PAW double counting   =     54431.09303398   -54537.79254336
  entropy T*S    EENTRO =        -0.15230692
  eigenvalues    EBANDS =      3589.22418031
  atomic energy  EATOM  =     68656.39924158
  Solvation  Ediel_sol  =         0.00000000
  ---------------------------------------------------
  free energy    TOTEN  =     11559.63857367 eV

  energy without entropy =    11559.79088060  energy(sigma->0) =    11559.71472713


--------------------------------------------------------------------------------------------------------




--------------------------------------- Iteration      1(   2)  ---------------------------------------


     EDDAV:  cpu time     11.7850: real time     11.8972
       DOS:  cpu time      0.0008: real time      0.0008
    --------------------------------------------
      LOOP:  cpu time     11.7859: real time     11.8980

 eigenvalue-minimisations  :  3808
 total energy-change (2. order) :-0.9986651E+04  (-0.9555773E+04)
 number of electron     792.0000000 magnetization
 augmentation part      792.0000000 magnetization

 Free energy of the ion-electron system (eV)
  ---------------------------------------------------
  alpha Z        PSCENC =      3563.47650690
  Ewald energy   TEWEN  =    -48587.85276338
  -Hartree energ DENC   =    -18841.62124442
  -exchange      EXHF   =         0.00000000
  -V(xc)+E(xc)   XCENC  =      3286.86446899
  PAW double counting   =     54431.09303398   -54537.79254336
  entropy T*S    EENTRO =        -0.28588808
  eigenvalues    EBANDS =     -6397.29318626
  atomic energy  EATOM  =     68656.39924158
  Solvation  Ediel_sol  =         0.00000000
  ---------------------------------------------------
  free energy    TOTEN  =      1572.98762594 eV

  energy without entropy =     1573.27351402  energy(sigma->0) =     1573.13056998


--------------------------------------------------------------------------------------------------------




--------------------------------------- Iteration      1(   3)  ---------------------------------------


     EDDAV:  cpu time     13.2859: real time     13.4100
       DOS:  cpu time      0.0007: real time      0.0007
    --------------------------------------------
      LOOP:  cpu time     13.2867: real time     13.4107

 eigenvalue-minimisations  :  4416
 total energy-change (2. order) :-0.2641785E+04  (-0.2570027E+04)
 number of electron     792.0000000 magnetization
 augmentation part      792.0000000 magnetization

 Free energy of the ion-electron system (eV)
  ---------------------------------------------------
  alpha Z        PSCENC =      3563.47650690
  Ewald energy   TEWEN  =    -48587.85276338
  -Hartree energ DENC   =    -18841.62124442
  -exchange      EXHF   =         0.00000000
  -V(xc)+E(xc)   XCENC  =      3286.86446899
  PAW double counting   =     54431.09303398   -54537.79254336
  entropy T*S    EENTRO =        -0.00000000
  eigenvalues    EBANDS =     -9039.36405998
  atomic energy  EATOM  =     68656.39924158
  Solvation  Ediel_sol  =         0.00000000
  ---------------------------------------------------
  free energy    TOTEN  =     -1068.79735970 eV

  energy without entropy =    -1068.79735970  energy(sigma->0) =    -1068.79735970


--------------------------------------------------------------------------------------------------------




--------------------------------------- Iteration      1(   4)  ---------------------------------------


     EDDAV:  cpu time     14.9976: real time     15.1359
       DOS:  cpu time      0.0007: real time      0.0007
    --------------------------------------------
      LOOP:  cpu time     14.9984: real time     15.1366

 eigenvalue-minimisations  :  5048
 total energy-change (2. order) :-0.2047306E+03  (-0.2036960E+03)
 number of electron     792.0000000 magnetization
 augmentation part      792.0000000 magnetization

 Free energy of the ion-electron system (eV)
  ---------------------------------------------------
  alpha Z        PSCENC =      3563.47650690
  Ewald energy   TEWEN  =    -48587.85276338
  -Hartree energ DENC   =    -18841.62124442
  -exchange      EXHF   =         0.00000000
  -V(xc)+E(xc)   XCENC  =      3286.86446899
  PAW double counting   =     54431.09303398   -54537.79254336
  entropy T*S    EENTRO =        -0.00000000
  eigenvalues    EBANDS =     -9244.09463514
  atomic energy  EATOM  =     68656.39924158
  Solvation  Ediel_sol  =         0.00000000
  ---------------------------------------------------
  free energy    TOTEN  =     -1273.52793485 eV

  energy without entropy =    -1273.52793485  energy(sigma->0) =    -1273.52793485


--------------------------------------------------------------------------------------------------------




--------------------------------------- Iteration      1(   5)  ---------------------------------------


     EDDAV:  cpu time     14.8020: real time     14.9371
       DOS:  cpu time      0.0009: real time      0.0009
    CHARGE:  cpu time      0.2380: real time      0.2448
    MIXING:  cpu time      0.0111: real time      0.0152
    --------------------------------------------
      LOOP:  cpu time     15.0522: real time     15.1980

 eigenvalue-minimisations  :  5016
 total energy-change (2. order) :-0.5115816E+01  (-0.5106512E+01)
 number of electron     792.0003054 magnetization
 augmentation part      202.2534345 magnetization

 Broyden mixing:
  rms(total) = 0.17248E+02    rms(broyden)= 0.17247E+02
  rms(prec ) = 0.19185E+02
  weight for this iteration     100.00

 Free energy of the ion-electron system (eV)
  ---------------------------------------------------
  alpha Z        PSCENC =      3563.47650690
  Ewald energy   TEWEN  =    -48587.85276338
  -Hartree energ DENC   =    -18841.62124442
  -exchange      EXHF   =         0.00000000
  -V(xc)+E(xc)   XCENC  =      3286.86446899
  PAW double counting   =     54431.09303398   -54537.79254336
  entropy T*S    EENTRO =        -0.00000000
  eigenvalues    EBANDS =     -9249.21045128
  atomic energy  EATOM  =     68656.39924158
  Solvation  Ediel_sol  =         0.00000000
  ---------------------------------------------------
  free energy    TOTEN  =     -1278.64375100 eV

  energy without entropy =    -1278.64375100  energy(sigma->0) =    -1278.64375100


--------------------------------------------------------------------------------------------------------




--------------------------------------- Iteration      1(   6)  ---------------------------------------


    POTLOK:  cpu time      0.1773: real time      0.1790
    SETDIJ:  cpu time      0.0136: real time      0.0137
     EDDAV:  cpu time     14.6019: real time     14.7313
       DOS:  cpu time      0.0009: real time      0.0009
    CHARGE:  cpu time      0.2532: real time      0.2566
    MIXING:  cpu time      0.0114: real time      0.0170
    --------------------------------------------
      LOOP:  cpu time     15.0584: real time     15.1988

 eigenvalue-minimisations  :  4968
 total energy-change (2. order) : 0.3023540E+03  (-0.1976539E+03)
 number of electron     792.0002460 magnetization
 augmentation part      214.1088161 magnetization

 Broyden mixing:
  rms(total) = 0.53118E+01    rms(broyden)= 0.53068E+01
  rms(prec ) = 0.58383E+01
  weight for this iteration     100.00

 eigenvalues of (default mixing * dielectric matrix)
  average eigenvalue GAMMA=   0.9656
  0.9656

 Free energy of the ion-electron system (eV)
  ---------------------------------------------------
  alpha Z        PSCENC =      3563.47650690
  Ewald energy   TEWEN  =    -48587.85276338
  -Hartree energ DENC   =    -19066.74539157
  -exchange      EXHF   =         0.00000000
  -V(xc)+E(xc)   XCENC  =      3337.89984544
  PAW double counting   =     68263.04620071   -68495.38765692
  entropy T*S    EENTRO =        -0.00000000
  eigenvalues    EBANDS =     -8647.12572205
  atomic energy  EATOM  =     68656.39924158
  Solvation  Ediel_sol  =         0.00000000
  ---------------------------------------------------
  free energy    TOTEN  =      -976.28973928 eV

  energy without entropy =     -976.28973928  energy(sigma->0) =     -976.28973928


--------------------------------------------------------------------------------------------------------




--------------------------------------- Iteration      1(   7)  ---------------------------------------


    POTLOK:  cpu time      0.1769: real time      0.1789
    SETDIJ:  cpu time      0.0091: real time      0.0091
     EDDAV:  cpu time     15.5438: real time     15.6867
       DOS:  cpu time      0.0010: real time      0.0010
    CHARGE:  cpu time      0.2380: real time      0.2429
    MIXING:  cpu time      0.0112: real time      0.0113
    --------------------------------------------
      LOOP:  cpu time     15.9799: real time     16.1298

 eigenvalue-minimisations  :  5336
 total energy-change (2. order) : 0.4285350E+01  (-0.2858859E+02)
 number of electron     792.0002650 magnetization
 augmentation part      207.3387657 magnetization

 Broyden mixing:
  rms(total) = 0.45936E+01    rms(broyden)= 0.45933E+01
  rms(prec ) = 0.47859E+01
  weight for this iteration     100.00

 eigenvalues of (default mixing * dielectric matrix)
  average eigenvalue GAMMA=   1.8455
  0.7380  2.9530

 Free energy of the ion-electron system (eV)
  ---------------------------------------------------
  alpha Z        PSCENC =      3563.47650690
  Ewald energy   TEWEN  =    -48587.85276338
  -Hartree energ DENC   =    -18909.46631707
  -exchange      EXHF   =         0.00000000
  -V(xc)+E(xc)   XCENC  =      3318.67083138
  PAW double counting   =     75271.99660206   -75515.35359950
  entropy T*S    EENTRO =        -0.00000000
  eigenvalues    EBANDS =     -8769.87489095
  atomic energy  EATOM  =     68656.39924158
  Solvation  Ediel_sol  =         0.00000000
  ---------------------------------------------------
  free energy    TOTEN  =      -972.00438897 eV

  energy without entropy =     -972.00438897  energy(sigma->0) =     -972.00438897


--------------------------------------------------------------------------------------------------------




--------------------------------------- Iteration      1(   8)  ---------------------------------------


    POTLOK:  cpu time      0.1693: real time      0.1713
    SETDIJ:  cpu time      0.0167: real time      0.0169
     EDDAV:  cpu time     14.8272: real time     14.9597
       DOS:  cpu time      0.0011: real time      0.0011
    CHARGE:  cpu time      0.2366: real time      0.2397
    MIXING:  cpu time      0.0125: real time      0.0126
    --------------------------------------------
      LOOP:  cpu time     15.2633: real time     15.4013

 eigenvalue-minimisations  :  5032
 total energy-change (2. order) :-0.1034695E+00  (-0.1103541E+02)
 number of electron     792.0002585 magnetization
 augmentation part      215.5714786 magnetization

 Broyden mixing:
  rms(total) = 0.33686E+01    rms(broyden)= 0.33684E+01
  rms(prec ) = 0.36660E+01
  weight for this iteration     100.00

 eigenvalues of (default mixing * dielectric matrix)
  average eigenvalue GAMMA=   1.2325
  2.1644  0.9324  0.6007

 Free energy of the ion-electron system (eV)
  ---------------------------------------------------
  alpha Z        PSCENC =      3563.47650690
  Ewald energy   TEWEN  =    -48587.85276338
  -Hartree energ DENC   =    -18531.96403103
  -exchange      EXHF   =         0.00000000
  -V(xc)+E(xc)   XCENC  =      3303.85977207
  PAW double counting   =     93895.18747637   -94210.82772397
  entropy T*S    EENTRO =        -0.00000000
  eigenvalues    EBANDS =     -9060.38633697
  atomic energy  EATOM  =     68656.39924158
  Solvation  Ediel_sol  =         0.00000000
  ---------------------------------------------------
  free energy    TOTEN  =      -972.10785844 eV

  energy without entropy =     -972.10785844  energy(sigma->0) =     -972.10785844


--------------------------------------------------------------------------------------------------------




--------------------------------------- Iteration      1(   9)  ---------------------------------------


    POTLOK:  cpu time      0.1651: real time      0.1665
    SETDIJ:  cpu time      0.0200: real time      0.0201
     EDDAV:  cpu time     14.9850: real time     15.1192
       DOS:  cpu time      0.0010: real time      0.0010
    CHARGE:  cpu time      0.2370: real time      0.2400
    MIXING:  cpu time      0.0121: real time      0.0121
    --------------------------------------------
      LOOP:  cpu time     15.4202: real time     15.5589

 eigenvalue-minimisations  :  5072
 total energy-change (2. order) : 0.5556835E+01  (-0.3471086E+01)
 number of electron     792.0002633 magnetization
 augmentation part      211.4571485 magnetization

 Broyden mixing:
  rms(total) = 0.24686E+00    rms(broyden)= 0.24610E+00
  rms(prec ) = 0.27121E+00
  weight for this iteration     100.00

 eigenvalues of (default mixing * dielectric matrix)
  average eigenvalue GAMMA=   1.2424
  2.2113  1.0671  1.0671  0.6239

 Free energy of the ion-electron system (eV)
  ---------------------------------------------------
  alpha Z        PSCENC =      3563.47650690
  Ewald energy   TEWEN  =    -48587.85276338
  -Hartree energ DENC   =    -18677.91434116
  -exchange      EXHF   =         0.00000000
  -V(xc)+E(xc)   XCENC  =      3308.81911847
  PAW double counting   =     88576.22222320   -88872.48135906
  entropy T*S    EENTRO =        -0.00000000
  eigenvalues    EBANDS =     -8933.21965013
  atomic energy  EATOM  =     68656.39924158
  Solvation  Ediel_sol  =         0.00000000
  ---------------------------------------------------
  free energy    TOTEN  =      -966.55102358 eV

  energy without entropy =     -966.55102358  energy(sigma->0) =     -966.55102358


--------------------------------------------------------------------------------------------------------




--------------------------------------- Iteration      1(  10)  ---------------------------------------


    POTLOK:  cpu time      0.1796: real time      0.1816
    SETDIJ:  cpu time      0.0103: real time      0.0103
     EDDAV:  cpu time     15.4023: real time     15.5401
       DOS:  cpu time      0.0009: real time      0.0009
    CHARGE:  cpu time      0.2352: real time      0.2384
    MIXING:  cpu time      0.0125: real time      0.0126
    --------------------------------------------
      LOOP:  cpu time     15.8407: real time     15.9840

 eigenvalue-minimisations  :  5264
 total energy-change (2. order) :-0.5825521E-01  (-0.9511437E-01)
 number of electron     792.0002623 magnetization
 augmentation part      211.5803087 magnetization

 Broyden mixing:
  rms(total) = 0.24218E+00    rms(broyden)= 0.24215E+00
  rms(prec ) = 0.26803E+00
  weight for this iteration     100.00

 eigenvalues of (default mixing * dielectric matrix)
  average eigenvalue GAMMA=   1.3284
  2.5279  1.8386  1.0237  0.6865  0.5656

 Free energy of the ion-electron system (eV)
  ---------------------------------------------------
  alpha Z        PSCENC =      3563.47650690
  Ewald energy   TEWEN  =    -48587.85276338
  -Hartree energ DENC   =    -18711.56462551
  -exchange      EXHF   =         0.00000000
  -V(xc)+E(xc)   XCENC  =      3311.32140297
  PAW double counting   =     88932.21200596   -89232.32970672
  entropy T*S    EENTRO =        -0.00000000
  eigenvalues    EBANDS =     -8898.27134058
  atomic energy  EATOM  =     68656.39924158
  Solvation  Ediel_sol  =         0.00000000
  ---------------------------------------------------
  free energy    TOTEN  =      -966.60927879 eV

  energy without entropy =     -966.60927879  energy(sigma->0) =     -966.60927879


--------------------------------------------------------------------------------------------------------




--------------------------------------- Iteration      1(  11)  ---------------------------------------


    POTLOK:  cpu time      0.1772: real time      0.1795
    SETDIJ:  cpu time      0.0106: real time      0.0106
     EDDAV:  cpu time     13.8735: real time     14.0015
       DOS:  cpu time      0.0006: real time      0.0006
    CHARGE:  cpu time      0.2344: real time      0.2360
    MIXING:  cpu time      0.0123: real time      0.0124
    --------------------------------------------
      LOOP:  cpu time     14.3085: real time     14.4406

 eigenvalue-minimisations  :  4624
 total energy-change (2. order) :-0.1263928E-01  (-0.1602065E-01)
 number of electron     792.0002620 magnetization
 augmentation part      211.4216496 magnetization

 Broyden mixing:
  rms(total) = 0.15082E+00    rms(broyden)= 0.15081E+00
  rms(prec ) = 0.18277E+00
  weight for this iteration     100.00

 eigenvalues of (default mixing * dielectric matrix)
  average eigenvalue GAMMA=   1.2844
  2.5286  1.8079  1.0864  1.0864  0.6222  0.5749

 Free energy of the ion-electron system (eV)
  ---------------------------------------------------
  alpha Z        PSCENC =      3563.47650690
  Ewald energy   TEWEN  =    -48587.85276338
  -Hartree energ DENC   =    -18741.41008583
  -exchange      EXHF   =         0.00000000
  -V(xc)+E(xc)   XCENC  =      3313.20241848
  PAW double counting   =     89222.87109896   -89525.63475679
  entropy T*S    EENTRO =        -0.00000000
  eigenvalues    EBANDS =     -8867.67357800
  atomic energy  EATOM  =     68656.39924158
  Solvation  Ediel_sol  =         0.00000000
  ---------------------------------------------------
  free energy    TOTEN  =      -966.62191807 eV

  energy without entropy =     -966.62191807  energy(sigma->0) =     -966.62191807


--------------------------------------------------------------------------------------------------------




--------------------------------------- Iteration      1(  12)  ---------------------------------------


    POTLOK:  cpu time      0.1733: real time      0.1755
    SETDIJ:  cpu time      0.0117: real time      0.0118
     EDDAV:  cpu time     15.4763: real time     15.6139
       DOS:  cpu time      0.0006: real time      0.0006
    CHARGE:  cpu time      0.2486: real time      0.2513
    MIXING:  cpu time      0.0137: real time      0.0138
    --------------------------------------------
      LOOP:  cpu time     15.9244: real time     16.0669

 eigenvalue-minimisations  :  5296
 total energy-change (2. order) : 0.2559147E-01  (-0.2855846E-01)
 number of electron     792.0002627 magnetization
 augmentation part      211.1771566 magnetization

 Broyden mixing:
  rms(total) = 0.56082E-01    rms(broyden)= 0.56001E-01
  rms(prec ) = 0.64436E-01
  weight for this iteration     100.00

 eigenvalues of (default mixing * dielectric matrix)
  average eigenvalue GAMMA=   1.2451
  2.5778  1.6323  1.6323  0.9973  0.6982  0.5890  0.5890

 Free energy of the ion-electron system (eV)
  ---------------------------------------------------
  alpha Z        PSCENC =      3563.47650690
  Ewald energy   TEWEN  =    -48587.85276338
  -Hartree energ DENC   =    -18738.27167322
  -exchange      EXHF   =         0.00000000
  -V(xc)+E(xc)   XCENC  =      3312.65732585
  PAW double counting   =     89225.01639956   -89526.82436935
  entropy T*S    EENTRO =        -0.00000000
  eigenvalues    EBANDS =     -8871.19699455
  atomic energy  EATOM  =     68656.39924158
  Solvation  Ediel_sol  =         0.00000000
  ---------------------------------------------------
  free energy    TOTEN  =      -966.59632660 eV

  energy without entropy =     -966.59632660  energy(sigma->0) =     -966.59632660


--------------------------------------------------------------------------------------------------------




--------------------------------------- Iteration      1(  13)  ---------------------------------------


    POTLOK:  cpu time      0.1738: real time      0.1759
    SETDIJ:  cpu time      0.0101: real time      0.0104
     EDDAV:  cpu time     15.4359: real time     15.5730
       DOS:  cpu time      0.0005: real time      0.0005
    CHARGE:  cpu time      0.2315: real time      0.2331
    MIXING:  cpu time      0.0127: real time      0.0127
    --------------------------------------------
      LOOP:  cpu time     15.8645: real time     16.0057

 eigenvalue-minimisations  :  5280
 total energy-change (2. order) : 0.9369097E-03  (-0.1433575E-02)
 number of electron     792.0002626 magnetization
 augmentation part      211.2263194 magnetization

 Broyden mixing:
  rms(total) = 0.23035E-01    rms(broyden)= 0.23029E-01
  rms(prec ) = 0.27848E-01
  weight for this iteration     100.00

 eigenvalues of (default mixing * dielectric matrix)
  average eigenvalue GAMMA=   1.2113
  2.5593  1.7167  1.7167  1.0107  0.7449  0.7449  0.6114  0.5858

 Free energy of the ion-electron system (eV)
  ---------------------------------------------------
  alpha Z        PSCENC =      3563.47650690
  Ewald energy   TEWEN  =    -48587.85276338
  -Hartree energ DENC   =    -18737.70828943
  -exchange      EXHF   =         0.00000000
  -V(xc)+E(xc)   XCENC  =      3312.65896176
  PAW double counting   =     89263.34057298   -89565.12547909
  entropy T*S    EENTRO =        -0.00000000
  eigenvalues    EBANDS =     -8871.78414102
  atomic energy  EATOM  =     68656.39924158
  Solvation  Ediel_sol  =         0.00000000
  ---------------------------------------------------
  free energy    TOTEN  =      -966.59538969 eV

  energy without entropy =     -966.59538969  energy(sigma->0) =     -966.59538969


--------------------------------------------------------------------------------------------------------




--------------------------------------- Iteration      1(  14)  ---------------------------------------


    POTLOK:  cpu time      0.1725: real time      0.1747
    SETDIJ:  cpu time      0.0129: real time      0.0130
     EDDAV:  cpu time     15.4391: real time     15.5741
       DOS:  cpu time      0.0006: real time      0.0005
    CHARGE:  cpu time      0.2377: real time      0.2393
    MIXING:  cpu time      0.0131: real time      0.0132
    --------------------------------------------
      LOOP:  cpu time     15.8759: real time     16.0149

 eigenvalue-minimisations  :  5304
 total energy-change (2. order) : 0.1030341E-03  (-0.1091043E-03)
 number of electron     792.0002626 magnetization
 augmentation part      211.2218736 magnetization

 Broyden mixing:
  rms(total) = 0.18149E-01    rms(broyden)= 0.18148E-01
  rms(prec ) = 0.21501E-01
  weight for this iteration     100.00

 eigenvalues of (default mixing * dielectric matrix)
  average eigenvalue GAMMA=   1.2519
  2.5108  2.0157  2.0157  1.0174  0.9608  0.9608  0.6506  0.5760  0.5592

 Free energy of the ion-electron system (eV)
  ---------------------------------------------------
  alpha Z        PSCENC =      3563.47650690
  Ewald energy   TEWEN  =    -48587.85276338
  -Hartree energ DENC   =    -18739.07872448
  -exchange      EXHF   =         0.00000000
  -V(xc)+E(xc)   XCENC  =      3312.73673030
  PAW double counting   =     89241.93121122   -89543.59964632
  entropy T*S    EENTRO =        -0.00000000
  eigenvalues    EBANDS =     -8870.60784248
  atomic energy  EATOM  =     68656.39924158
  Solvation  Ediel_sol  =         0.00000000
  ---------------------------------------------------
  free energy    TOTEN  =      -966.59528666 eV

  energy without entropy =     -966.59528666  energy(sigma->0) =     -966.59528666


--------------------------------------------------------------------------------------------------------




--------------------------------------- Iteration      1(  15)  ---------------------------------------


    POTLOK:  cpu time      0.1722: real time      0.1744
    SETDIJ:  cpu time      0.0162: real time      0.0163
     EDDAV:  cpu time     15.5750: real time     15.7105
       DOS:  cpu time      0.0031: real time      0.0031
    CHARGE:  cpu time      0.2503: real time      0.2518
    MIXING:  cpu time      0.0135: real time      0.0136
    --------------------------------------------
      LOOP:  cpu time     16.0303: real time     16.1698

 eigenvalue-minimisations  :  5344
 total energy-change (2. order) : 0.3895165E-04  (-0.1307027E-03)
 number of electron     792.0002625 magnetization
 augmentation part      211.2317885 magnetization

 Broyden mixing:
  rms(total) = 0.82349E-02    rms(broyden)= 0.82312E-02
  rms(prec ) = 0.99230E-02
  weight for this iteration     100.00

 eigenvalues of (default mixing * dielectric matrix)
  average eigenvalue GAMMA=   1.2389
  2.6955  2.3738  2.0390  0.9424  0.9424  0.8268  0.8268  0.6063  0.5679  0.5679

 Free energy of the ion-electron system (eV)
  ---------------------------------------------------
  alpha Z        PSCENC =      3563.47650690
  Ewald energy   TEWEN  =    -48587.85276338
  -Hartree energ DENC   =    -18740.21734478
  -exchange      EXHF   =         0.00000000
  -V(xc)+E(xc)   XCENC  =      3312.80429848
  PAW double counting   =     89227.82128948   -89529.33650868
  entropy T*S    EENTRO =        -0.00000000
  eigenvalues    EBANDS =     -8869.68996731
  atomic energy  EATOM  =     68656.39924158
  Solvation  Ediel_sol  =         0.00000000
  ---------------------------------------------------
  free energy    TOTEN  =      -966.59524771 eV

  energy without entropy =     -966.59524771  energy(sigma->0) =     -966.59524771


--------------------------------------------------------------------------------------------------------




--------------------------------------- Iteration      1(  16)  ---------------------------------------


    POTLOK:  cpu time      0.1754: real time      0.1776
    SETDIJ:  cpu time      0.0096: real time      0.0097
     EDDAV:  cpu time     15.2924: real time     15.4261
       DOS:  cpu time      0.0037: real time      0.0037
    CHARGE:  cpu time      0.2526: real time      0.2543
    MIXING:  cpu time      0.0141: real time      0.0142
    --------------------------------------------
      LOOP:  cpu time     15.7477: real time     15.8856

 eigenvalue-minimisations  :  5224
 total energy-change (2. order) : 0.3536209E-04  (-0.7687517E-04)
 number of electron     792.0002625 magnetization
 augmentation part      211.2448995 magnetization

 Broyden mixing:
  rms(total) = 0.49765E-02    rms(broyden)= 0.49729E-02
  rms(prec ) = 0.57209E-02
  weight for this iteration     100.00

 eigenvalues of (default mixing * dielectric matrix)
  average eigenvalue GAMMA=   1.2264
  2.7868  2.4331  1.8699  0.8914  0.8914  1.0339  1.0339  0.7969  0.6121  0.6121
  0.5289

 Free energy of the ion-electron system (eV)
  ---------------------------------------------------
  alpha Z        PSCENC =      3563.47650690
  Ewald energy   TEWEN  =    -48587.85276338
  -Hartree energ DENC   =    -18740.62389595
  -exchange      EXHF   =         0.00000000
  -V(xc)+E(xc)   XCENC  =      3312.83925998
  PAW double counting   =     89230.63194470   -89532.13060463
  entropy T*S    EENTRO =        -0.00000000
  eigenvalues    EBANDS =     -8869.33490155
  atomic energy  EATOM  =     68656.39924158
  Solvation  Ediel_sol  =         0.00000000
  ---------------------------------------------------
  free energy    TOTEN  =      -966.59521235 eV

  energy without entropy =     -966.59521235  energy(sigma->0) =     -966.59521235


--------------------------------------------------------------------------------------------------------




--------------------------------------- Iteration      1(  17)  ---------------------------------------


    POTLOK:  cpu time      0.1748: real time      0.1770
    SETDIJ:  cpu time      0.0145: real time      0.0146
     EDDAV:  cpu time     15.4920: real time     15.6261
       DOS:  cpu time      0.0038: real time      0.0038
    CHARGE:  cpu time      0.2326: real time      0.2341
    MIXING:  cpu time      0.0140: real time      0.0141
    --------------------------------------------
      LOOP:  cpu time     15.9318: real time     16.0697

 eigenvalue-minimisations  :  5312
 total energy-change (2. order) : 0.3860827E-05  (-0.1791346E-04)
 number of electron     792.0002625 magnetization
 augmentation part      211.2415018 magnetization

 Broyden mixing:
  rms(total) = 0.22320E-02    rms(broyden)= 0.22297E-02
  rms(prec ) = 0.27497E-02
  weight for this iteration     100.00

 eigenvalues of (default mixing * dielectric matrix)
  average eigenvalue GAMMA=   1.1788
  2.8789  2.3675  1.9183  1.0784  1.0784  0.8929  0.8929  0.6546  0.6546  0.6196
  0.5551  0.5551

 Free energy of the ion-electron system (eV)
  ---------------------------------------------------
  alpha Z        PSCENC =      3563.47650690
  Ewald energy   TEWEN  =    -48587.85276338
  -Hartree energ DENC   =    -18740.88505258
  -exchange      EXHF   =         0.00000000
  -V(xc)+E(xc)   XCENC  =      3312.85192790
  PAW double counting   =     89227.44009641   -89528.94569052
  entropy T*S    EENTRO =        -0.00000000
  eigenvalues    EBANDS =     -8869.07947480
  atomic energy  EATOM  =     68656.39924158
  Solvation  Ediel_sol  =         0.00000000
  ---------------------------------------------------
  free energy    TOTEN  =      -966.59520849 eV

  energy without entropy =     -966.59520849  energy(sigma->0) =     -966.59520849


--------------------------------------------------------------------------------------------------------




--------------------------------------- Iteration      1(  18)  ---------------------------------------


    POTLOK:  cpu time      0.1691: real time      0.1711
    SETDIJ:  cpu time      0.0179: real time      0.0180
     EDDAV:  cpu time     15.5243: real time     15.6656
       DOS:  cpu time      0.0036: real time      0.0036
    CHARGE:  cpu time      0.2295: real time      0.2310
    MIXING:  cpu time      0.0160: real time      0.0161
    --------------------------------------------
      LOOP:  cpu time     15.9604: real time     16.1053

 eigenvalue-minimisations  :  5288
 total energy-change (2. order) :-0.3614114E-05  (-0.2093084E-05)
 number of electron     792.0002625 magnetization
 augmentation part      211.2428078 magnetization

 Broyden mixing:
  rms(total) = 0.27639E-02    rms(broyden)= 0.27637E-02
  rms(prec ) = 0.32836E-02
  weight for this iteration     100.00

 eigenvalues of (default mixing * dielectric matrix)
  average eigenvalue GAMMA=   1.1822
  2.9461  2.3463  1.8986  1.3076  1.0696  0.8320  0.8320  0.9107  0.9107  0.6493
  0.5829  0.5829  0.4996

 Free energy of the ion-electron system (eV)
  ---------------------------------------------------
  alpha Z        PSCENC =      3563.47650690
  Ewald energy   TEWEN  =    -48587.85276338
  -Hartree energ DENC   =    -18740.85638639
  -exchange      EXHF   =         0.00000000
  -V(xc)+E(xc)   XCENC  =      3312.84996407
  PAW double counting   =     89229.10519073   -89530.61791663
[...]
      7.58456      3.79228      1.99678     0.00040  0.00009 -2.88587 ( -0.63495  6.00000)
      7.58456      7.58456      1.99678    -0.00318 -0.00729 -2.90049 ( -0.63474  6.00000)
      0.00000      1.89614      0.40437    -0.00001  0.00033 -2.89259 ( -0.63483  6.00000)
      0.00000      5.68842      0.40437    -0.00001 -0.00080 -2.89369 ( -0.63480  6.00000)
      0.00000      9.48070      0.40437     0.00002  0.00053 -2.89665 ( -0.63483  6.00000)
      3.79228      1.89614      0.40437     0.00133  0.00160 -2.88784 ( -0.63484  6.00000)
      3.79228      5.68842      0.40437     0.00002 -0.00353 -2.89309 ( -0.63482  6.00000)
      3.79228      9.48070      0.40437    -0.00124  0.00134 -2.90096 ( -0.63484  6.00000)
      7.58456      1.89614      0.40437    -0.00135  0.00159 -2.88784 ( -0.63484  6.00000)
      7.58456      5.68842      0.40437    -0.00004 -0.00351 -2.89308 ( -0.63482  6.00000)
      7.58456      9.48070      0.40437     0.00121  0.00137 -2.90097 ( -0.63484  6.00000)
      1.89614      1.89614      2.80551     0.01046  0.00076 -2.89973 ( -0.63483  6.00000)
      1.89614      5.68842      2.80551    -0.00006  0.00232 -2.89404 ( -0.63483  6.00000)
      1.89614      9.48070      2.80551    -0.01101  0.00018 -2.89098 ( -0.63485  6.00000)
      5.68842      1.89614      2.80551    -0.00005  0.00995 -2.89445 ( -0.63476  6.00000)
      5.68842      5.68842      2.80551    -0.00000  0.09702 -2.86624 ( -0.63468  6.00000)
      5.68842      9.48070      2.80551    -0.00001  0.00909 -2.89782 ( -0.63487  6.00000)
      9.48070      1.89614      2.80551    -0.01051  0.00074 -2.89975 ( -0.63483  6.00000)
      9.48070      5.68842      2.80551     0.00005  0.00234 -2.89404 ( -0.63483  6.00000)
      9.48070      9.48070      2.80551     0.01102  0.00014 -2.89099 ( -0.63486  6.00000)
 -----------------------------------------------------------------------------------------
    total drift (improves with k-points):  -0.00019 -0.00015 -0.07317




--------------------------------------------------------------------------------------------------------




 MACROSCOPIC STATIC DIELECTRIC TENSOR (including local field effects in DFT)
 ------------------------------------------------------
           6.957904    -0.000011     0.000008
          -0.000008     6.953764    -0.022992
           0.000002    -0.023000     6.371473
 ------------------------------------------------------



--------------------------------------------------------------------------------------------------------




--------------------------------------------------------------------------------------------------------




 MACROSCOPIC STATIC DIELECTRIC TENSOR (including local field effects in DFT)
 ------------------------------------------------------
           6.957904    -0.000011     0.000008
          -0.000008     6.953764    -0.022992
           0.000002    -0.023000     6.371473
 ------------------------------------------------------


 PIEZOELECTRIC TENSOR (including local field effects)  for field in x, y, z        (e  Angst)
          XX          YY          ZZ          XY          YZ          ZX
  --------------------------------------------------------------------------------
  x    -0.00081     0.00067    -0.00026    -0.44912     0.00073    -0.00127
  y    -0.53354    -0.06629    -0.86945     0.00028     0.09559     0.00002
  z     0.04827     0.04137    -0.01042     0.00009     0.01111    -0.00001

 PIEZOELECTRIC TENSOR (including local field effects)  for field in x, y, z        (C/m^2)
          XX          YY          ZZ          XY          YZ          ZX
  --------------------------------------------------------------------------------
  x    -0.00001     0.00001    -0.00000    -0.00579     0.00001    -0.00002
  y    -0.00688    -0.00085    -0.01121     0.00000     0.00123     0.00000
  z     0.00062     0.00053    -0.00013     0.00000     0.00014    -0.00000

 BORN EFFECTIVE CHARGES (including local field effects) (in |e|, cummulative output)
 ---------------------------------------------------------------------------------
 ion    1
    1     6.67114    -0.00116    -0.00323
    2    -0.01626     6.65777     0.01814
    3     0.00268    -0.00572     5.79588
 ion    2
    1     6.65214     0.00031     0.00088
    2    -0.02975     6.66248     0.00369
    3    -0.00628     0.00385     5.78799
 ion    3
    1     6.64871     0.00121     0.00339
    2    -0.00632     6.65768     0.01565
    3     0.00219    -0.00343     5.77961
 ion    4
    1     6.68684    -0.00005     0.00002
    2    -0.00000     6.59933     0.02817
    3     0.00006    -0.27702     5.80974
 ion    5
    1     6.59624     0.00004    -0.00005
    2    -0.00003     6.57356    -0.33089
    3     0.00004    -0.35290     5.74951
 ion    6
    1     6.62762    -0.00002    -0.00005
    2     0.00001     6.60043     0.04469
    3    -0.00000    -0.28321     5.76406
 ion    7
    1     6.67114     0.00122     0.00321
    2     0.01625     6.65776     0.01813
    3    -0.00260    -0.00569     5.79587
 ion    8
    1     6.65214    -0.00028    -0.00098
    2     0.02975     6.66245     0.00363
    3     0.00630     0.00387     5.78804
 ion    9
    1     6.64869    -0.00116    -0.00342
    2     0.00630     6.65774     0.01564
    3    -0.00217    -0.00341     5.77963
 ion   10
    1     6.66091    -0.00007     0.00033
    2     0.00171     6.65671    -0.01026
    3     0.00054     0.00014     5.78706
 ion   11
    1     6.66789    -0.00044     0.00516
    2     0.02261     6.66279     0.01984
    3    -0.00120    -0.00069     5.79165
 ion   12
    1     6.65406     0.00042    -0.00397
    2     0.02831     6.66311     0.01852
    3     0.00251     0.00059     5.78632
 ion   13
    1     6.65640     0.00001     0.00003
    2     0.00003     6.64437    -0.03381
    3     0.00002     0.00070     5.78682
 ion   14
    1     6.69765     0.00002     0.00005
    2    -0.00002     6.66563    -0.20600
    3     0.00003     0.00071     5.72113
 ion   15
    1     6.62274    -0.00007    -0.00000
    2     0.00002     6.66906    -0.25187
    3    -0.00002    -0.00109     5.82128
 ion   16
    1     6.66087    -0.00005    -0.00025
    2    -0.00166     6.65671    -0.01033
    3    -0.00055     0.00008     5.78702
 ion   17
    1     6.66788     0.00039    -0.00512
    2    -0.02259     6.66278     0.01985
    3     0.00120    -0.00067     5.79161
 ion   18
    1     6.65409    -0.00043     0.00400
    2    -0.02838     6.66305     0.01850
    3    -0.00245     0.00057     5.78635
 ion   19
    1     6.65663     0.00000    -0.00003
    2     0.00002     6.65512     0.00428
    3    -0.00005    -0.00152     5.78719
 ion   20
    1     6.65639     0.00003     0.00004
    2    -0.00007     6.66170    -0.01321
    3    -0.00003     0.00017     5.78638
 ion   21
    1     6.66215     0.00003     0.00003
    2     0.00004     6.66194    -0.01374
    3     0.00001     0.00149     5.78819
 ion   22
    1     6.66037    -0.00001    -0.00036
    2     0.00284     6.65647     0.00844
    3     0.00046    -0.00562     5.78678
 ion   23
    1     6.63625    -0.00011    -0.01601
    2     0.02114     6.66325    -0.04142
    3    -0.00009     0.00264     5.76938
 ion   24
    1     6.68320     0.00003     0.01374
    2     0.02508     6.66369    -0.04258
    3    -0.00026     0.00415     5.80139
 ion   25
    1     6.66040     0.00005     0.00036
    2    -0.00292     6.65650     0.00839
    3    -0.00046    -0.00567     5.78681
 ion   26
    1     6.63627    -0.00001     0.01606
    2    -0.02116     6.66332    -0.04137
    3     0.00004     0.00264     5.76938
 ion   27
    1     6.68317    -0.00001    -0.01369
    2    -0.02506     6.66368    -0.04262
    3     0.00024     0.00414     5.80138
 ion   28
    1     6.65743     0.00001     0.00001
    2    -0.00008     6.65956    -0.01276
    3     0.00002    -0.00085     5.78822
 ion   29
    1     6.65584    -0.00005     0.00002
    2    -0.00005     6.65797    -0.00178
    3     0.00003    -0.00015     5.78544
 ion   30
    1     6.66109    -0.00004    -0.00003
    2     0.00002     6.65981    -0.01004
    3    -0.00003     0.00095     5.78726
 ion   31
    1     6.63444    -0.00017     0.03031
    2    -0.00891     6.65775    -0.02683
    3    -0.00117    -0.00322     5.76608
 ion   32
    1     6.66585     0.00019    -0.01078
    2    -0.03728     6.65998    -0.02674
    3    -0.01095    -0.00014     5.78109
 ion   33
    1     6.68595     0.00026    -0.02968
    2    -0.00483     6.65754    -0.01812
    3     0.00236     0.00353     5.81246
 ion   34
    1     6.63446     0.00010    -0.03031
    2     0.00888     6.65772    -0.02688
    3     0.00124    -0.00320     5.76608
 ion   35
    1     6.66588    -0.00023     0.01073
    2     0.03726     6.65993    -0.02677
    3     0.01097    -0.00015     5.78107
 ion   36
    1     6.68597    -0.00030     0.02972
    2     0.00483     6.65757    -0.01813
    3    -0.00234     0.00345     5.81248
 ion   37
    1    -5.53677    -0.00003     0.00000
    2    -0.00001    -1.11930     0.00226
    3    -0.00003     0.00008    -2.89813
 ion   38
    1    -5.53530     0.00006     0.00005
    2     0.00003    -1.12282     0.00415
    3    -0.00001     0.00240    -2.89266
 ion   39
    1    -5.53797    -0.00002     0.00002
    2     0.00000    -1.12632     0.00134
    3     0.00001    -0.00029    -2.89039
 ion   40
    1    -5.55436    -0.00933    -0.03272
    2     0.05000    -1.12492     0.00529
    3     0.01330     0.01012    -2.87790
 ion   41
    1    -5.50634     0.13310     0.01363
    2     0.08232    -1.11791     0.01085
    3     0.01133     0.01797    -2.89223
 ion   42
    1    -5.51574    -0.01050     0.03259
    2     0.03125    -1.11386    -0.00231
    3    -0.02035     0.00971    -2.91148
 ion   43
    1    -5.55438     0.00936     0.03271
    2    -0.04999    -1.12490     0.00531
    3    -0.01336     0.01013    -2.87793
 ion   44
    1    -5.50632    -0.13310    -0.01354
    2    -0.08228    -1.11791     0.01083
    3    -0.01135     0.01794    -2.89221
 ion   45
    1    -5.51570     0.01052    -0.03251
    2    -0.03126    -1.11387    -0.00229
    3     0.02036     0.00977    -2.91149
 ion   46
    1    -1.12608     0.00139    -0.00183
    2    -0.00304    -5.53694    -0.01226
    3    -0.00039    -0.00066    -2.89375
 ion   47
    1    -1.12337    -0.00244    -0.00039
    2    -0.00193    -5.54157     0.00078
    3    -0.00004     0.00325    -2.89427
 ion   48
    1    -1.12130     0.00086     0.00140
    2    -0.00348    -5.53355    -0.01114
    3    -0.00002    -0.00239    -2.89361
 ion   49
    1    -1.12185    -0.00004    -0.00000
    2     0.00002    -5.57192    -0.04810
    3    -0.00003    -0.02255    -2.92742
 ion   50
    1    -1.12201    -0.00002    -0.00002
    2     0.00001    -5.53768     0.04963
    3    -0.00002     0.02113    -2.88129
 ion   51
    1    -1.12271    -0.00000    -0.00001
    2    -0.00004    -5.47820    -0.03605
    3    -0.00002    -0.02030    -2.85508
 ion   52
    1    -1.12606    -0.00139     0.00178
    2     0.00300    -5.53691    -0.01223
    3     0.00035    -0.00067    -2.89375
 ion   53
    1    -1.12338     0.00245     0.00037
    2     0.00193    -5.54156     0.00083
    3    -0.00000     0.00322    -2.89429
 ion   54
    1    -1.12131    -0.00086    -0.00138
    2     0.00351    -5.53358    -0.01113
    3     0.00001    -0.00233    -2.89359
 ion   55
    1    -1.12340     0.00652    -0.00004
    2    -0.00200    -5.53371     0.00818
    3    -0.00011     0.00851    -2.89371
 ion   56
    1    -1.12550     0.00086    -0.00055
    2     0.00372    -5.53464    -0.01843
    3     0.00232    -0.00047    -2.89381
 ion   57
    1    -1.11902    -0.00198    -0.00115
    2     0.00162    -5.53962    -0.01650
    3    -0.00164    -0.00527    -2.89615
 ion   58
    1    -1.12141     0.00003    -0.00001
    2    -0.00002    -5.51047     0.01724
    3     0.00000     0.17458    -2.89251
 ion   59
    1    -1.07997    -0.00003     0.00003
    2    -0.00002    -5.66034     0.26489
    3     0.00000     0.28056    -2.82692
 ion   60
    1    -1.14961     0.00004    -0.00001
    2     0.00002    -5.28879     0.27395
    3     0.00002     0.28537    -2.93550
 ion   61
    1    -1.12337    -0.00656     0.00004
    2     0.00198    -5.53373     0.00819
    3     0.00012     0.00853    -2.89372
 ion   62
    1    -1.12550    -0.00087     0.00056
    2    -0.00370    -5.53460    -0.01841
    3    -0.00231    -0.00050    -2.89379
 ion   63
    1    -1.11902     0.00193     0.00112
    2    -0.00170    -5.53967    -0.01640
    3     0.00162    -0.00528    -2.89617
 ion   64
    1    -5.53757     0.00004    -0.00000
    2    -0.00002    -1.12173     0.00103
    3     0.00003     0.00161    -2.89324
 ion   65
    1    -5.53967     0.00001    -0.00001
    2     0.00001    -1.12023     0.00164
    3     0.00002    -0.00067    -2.89527
 ion   66
    1    -5.53537    -0.00000    -0.00003
    2     0.00003    -1.12723     0.00267
    3    -0.00007    -0.00068    -2.89246
 ion   67
    1    -5.53668    -0.00338     0.00042
    2     0.00405    -1.12108     0.00294
    3    -0.00042     0.00512    -2.89345
 ion   68
    1    -5.55142     0.00181     0.02088
    2    -0.04272    -1.11713     0.01744
    3    -0.02165    -0.00338    -2.89111
 ion   69
    1    -5.52302     0.00223    -0.01862
    2    -0.05301    -1.13117     0.02102
    3     0.01703    -0.00314    -2.89418
 ion   70
    1    -5.53672     0.00335    -0.00043
    2    -0.00407    -1.12110     0.00294
    3     0.00037     0.00513    -2.89343
 ion   71
    1    -5.55140    -0.00179    -0.02092
    2     0.04271    -1.11717     0.01743
    3     0.02161    -0.00339    -2.89112
 ion   72
    1    -5.52304    -0.00221     0.01860
    2     0.05303    -1.13116     0.02103
    3    -0.01702    -0.00312    -2.89419
 ion   73
    1    -5.53664    -0.00045    -0.00004
    2     0.00026    -1.12195    -0.00062
    3     0.00012    -0.00094    -2.89379
 ion   74
    1    -5.53431     0.00030    -0.00241
    2    -0.00792    -1.12110     0.00322
    3    -0.00594     0.00060    -2.89614
 ion   75
    1    -5.53908    -0.00007     0.00209
    2    -0.01014    -1.12652     0.00386
    3     0.00600     0.00026    -2.89130
 ion   76
    1    -5.53705     0.00001     0.00000
    2    -0.00000    -1.12146     0.00327
    3    -0.00002    -0.00159    -2.89272
 ion   77
    1    -5.50022     0.00001    -0.00001
    2     0.00002    -1.11011     0.04876
    3     0.00001     0.00018    -2.87009
 ion   78
    1    -5.57127     0.00001    -0.00002
    2    -0.00002    -1.13671     0.05935
    3     0.00003    -0.00070    -2.90861
 ion   79
    1    -5.53663     0.00045     0.00003
    2    -0.00025    -1.12194    -0.00060
    3    -0.00005    -0.00091    -2.89381
 ion   80
    1    -5.53428    -0.00033     0.00241
    2     0.00794    -1.12111     0.00320
    3     0.00598     0.00058    -2.89616
 ion   81
    1    -5.53906     0.00004    -0.00217
    2     0.01011    -1.12653     0.00385
    3    -0.00600     0.00026    -2.89130
 ion   82
    1    -1.12220     0.00002     0.00000
    2     0.00001    -5.53578    -0.00356
    3     0.00001     0.00169    -2.89310
 ion   83
    1    -1.12276     0.00002     0.00000
    2     0.00000    -5.53785     0.00848
    3     0.00005     0.00009    -2.89127
 ion   84
    1    -1.12156     0.00002    -0.00001
    2     0.00001    -5.53689     0.00809
    3    -0.00000    -0.00088    -2.89610
 ion   85
    1    -1.12340     0.00402     0.00004
    2    -0.00073    -5.53385    -0.00904
    3    -0.00019     0.00745    -2.89370
 ion   86
    1    -1.12341    -0.00387    -0.00123
    2     0.00378    -5.52506     0.02403
    3    -0.00040     0.00011    -2.88522
 ion   87
    1    -1.12424    -0.00277     0.00175
    2     0.00255    -5.54776     0.02167
    3     0.00320    -0.00732    -2.89980
 ion   88
    1    -1.12342    -0.00401    -0.00004
    2     0.00075    -5.53387    -0.00898
    3     0.00019     0.00748    -2.89374
 ion   89
    1    -1.12341     0.00395     0.00123
    2    -0.00372    -5.52508     0.02407
    3     0.00040     0.00009    -2.88519
 ion   90
    1    -1.12424     0.00283    -0.00178
    2    -0.00254    -5.54774     0.02170
    3    -0.00318    -0.00729    -2.89982
 ion   91
    1    -1.12305     0.00000     0.00000
    2     0.00002    -5.53670     0.00716
    3    -0.00001     0.00033    -2.89191
 ion   92
    1    -1.12220     0.00002    -0.00001
    2     0.00004    -5.53957    -0.00052
    3    -0.00001    -0.00080    -2.89301
 ion   93
    1    -1.12170    -0.00002    -0.00001
    2    -0.00005    -5.53515     0.00667
    3     0.00002     0.00053    -2.89597
 ion   94
    1    -1.12172     0.00229    -0.00159
    2    -0.00197    -5.53659     0.01746
    3     0.00133     0.00160    -2.88716
 ion   95
    1    -1.12366    -0.00441     0.00063
    2    -0.00049    -5.54253     0.00295
    3     0.00002    -0.00353    -2.89241
 ion   96
    1    -1.12506     0.00198     0.00162
    2    -0.00246    -5.53367     0.01588
    3    -0.00123     0.00134    -2.90028
 ion   97
    1    -1.12173    -0.00227     0.00156
    2     0.00195    -5.53666     0.01752
    3    -0.00135     0.00159    -2.88716
 ion   98
    1    -1.12366     0.00441    -0.00065
    2     0.00046    -5.54253     0.00292
    3    -0.00004    -0.00351    -2.89241
 ion   99
    1    -1.12503    -0.00199    -0.00163
    2     0.00250    -5.53371     0.01592
    3     0.00122     0.00137    -2.90030
 ion  100
    1    -5.53672    -0.00061     0.00174
    2     0.00719    -1.12004     0.00359
    3     0.01046     0.00077    -2.89906
 ion  101
    1    -5.53621     0.00258     0.00036
    2     0.00471    -1.12335     0.00014
    3    -0.00006     0.00232    -2.89336
 ion  102
    1    -5.53623    -0.00060    -0.00148
    2     0.00452    -1.12621     0.00232
    3    -0.01100     0.00018    -2.89030
 ion  103
    1    -5.49530     0.00000    -0.00002
    2     0.00004    -1.12428     0.02531
    3    -0.00005     0.00995    -2.89377
 ion  104
    1    -5.54896     0.00001     0.00005
    2     0.00003    -1.11809     0.06121
    3    -0.00000     0.09702    -2.86556
 ion  105
    1    -5.57852     0.00003     0.00002
    2     0.00002    -1.11969     0.01870
    3    -0.00000     0.00909    -2.89714
 ion  106
    1    -5.53681     0.00061    -0.00172
    2    -0.00712    -1.12002     0.00357
    3    -0.01051     0.00074    -2.89907
 ion  107
    1    -5.53626    -0.00260    -0.00033
    2    -0.00469    -1.12333     0.00012
    3     0.00005     0.00235    -2.89336
 ion  108
    1    -5.53621     0.00067     0.00148
    2    -0.00448    -1.12621     0.00232
    3     0.01102     0.00014    -2.89031


--------------------------------------------------------------------------------------------------------


     LOOP+:  cpu time   1925.3011: real time   1966.6812
    4ORBIT:  cpu time      0.0000: real time      0.0000

 total amount of memory used by VASP MPI-rank0   266717. kBytes
=======================================================================

   base      :      30000. kBytes
   nonlr-proj:      19548. kBytes
   fftplans  :      10927. kBytes
   grid      :      23181. kBytes
   one-center:       1679. kBytes
   wavefun   :     181382. kBytes



 General timing and accounting informations for this job:
 ========================================================

                  Total CPU time used (sec):     1936.754
                            User time (sec):     1881.984
                          System time (sec):       54.769
                         Elapsed time (sec):     1989.211

                   Maximum memory used (kb):     1090624.
                   Average memory used (kb):          N/A

                          Minor page faults:       903755
                          Major page faults:           32
                 Voluntary context switches:       107654
