 vasp.6.3.0 20Jan22 (build Mar 29 2022 16:24:06) complex

 executed on             Bridges2 date 2023.01.10  17:19:55
 running on   32 total cores
 distrk:  each k-point on    4 cores,    8 groups
 distr:  one band on NCORE=   1 cores,    4 groups


--------------------------------------------------------------------------------------------------------


 INCAR:
   ICHARG = 2
   LWAVE = .FALSE.
   LCHARG = .FALSE.
   LVTOT = .FALSE.
   NCORE = 1
   KPAR = 8
   EDIFF = 1E-7
   NELM = 80
   PREC = Normal
   LREAL = Auto
   NELMIN = 4
   ENCUT = 400.0 eV
   ISPIN = 1
   ISMEAR = 0
   SIGMA = 0.10
   NSW = 0
   LEPSILON = .TRUE.
   LPEAD = .TRUE.
   ISYM = 0

 POTCAR:    PAW_PBE Ti_pv 07Sep2000
 POTCAR:    PAW_PBE O 08Apr2002
 -----------------------------------------------------------------------------
|                                                                             |
|           W    W    AA    RRRRR   N    N  II  N    N   GGGG   !!!           |
|           W    W   A  A   R    R  NN   N  II  NN   N  G    G  !!!           |
|           W    W  A    A  R    R  N N  N  II  N N  N  G       !!!           |
|           W WW W  AAAAAA  RRRRR   N  N N  II  N  N N  G  GGG   !            |
|           WW  WW  A    A  R   R   N   NN  II  N   NN  G    G                |
|           W    W  A    A  R    R  N    N  II  N    N   GGGG   !!!           |
|                                                                             |
|     For optimal performance we recommend to set                             |
|       NCORE = 2 up to number-of-cores-per-socket                            |
|     NCORE specifies how many cores store one orbital (NPAR=cpu/NCORE).      |
|     This setting can greatly improve the performance of VASP for DFT.       |
|     The default, NCORE=1 might be grossly inefficient on modern             |
|     multi-core architectures or massively parallel machines. Do your        |
|     own testing! More info at https://www.vasp.at/wiki/index.php/NCORE      |
|     Unfortunately you need to use the default for GW and RPA                |
|     calculations (for HF NCORE is supported but not extensively tested      |
|     yet).                                                                   |
|                                                                             |
 -----------------------------------------------------------------------------

 POTCAR:    PAW_PBE Ti_pv 07Sep2000
   VRHFIN =Ti: d3 s1
   LEXCH  = PE
   EATOM  =  1042.5995 eV,   76.6289 Ry

   TITEL  = PAW_PBE Ti_pv 07Sep2000
   LULTRA =        F    use ultrasoft PP ?
   IUNSCR =        1    unscreen: 0-lin 1-nonlin 2-no
   RPACOR =    2.200    partial core radius
   POMASS =   47.880; ZVAL   =   10.000    mass and valenz
   RCORE  =    2.500    outmost cutoff radius
   RWIGS  =    2.500; RWIGS  =    1.323    wigner-seitz radius (au A)
   ENMAX  =  222.335; ENMIN  =  166.751 eV
   RCLOC  =    1.701    cutoff for local pot
   LCOR   =        T    correct aug charges
   LPAW   =        T    paw PP
   EAUG   =  482.848
   DEXC   =    0.000
   RMAX   =    2.564    core radius for proj-oper
   RAUG   =    1.300    factor for augmentation sphere
   RDEP   =    2.538    radius for radial grids
   RDEPT  =    1.952    core radius for aug-charge

   Atomic configuration
    8 entries
     n  l   j            E        occ.
     1  0  0.50     -4865.3608   2.0000
     2  0  0.50      -533.1368   2.0000
     2  1  1.50      -440.5031   6.0000
     3  0  0.50       -59.3186   2.0000
     3  1  1.50       -35.7012   6.0000
     3  2  2.50        -1.9157   3.0000
     4  0  0.50        -3.7291   1.0000
     4  3  2.50        -1.3606   0.0000
   Description
     l       E           TYP  RCUT    TYP  RCUT
     1    -35.7012140     23  2.300
     1     -1.3605826     23  2.300
     2     -1.9156996     23  2.500
     2     -0.4063033     23  2.500
     0     -3.7290856     23  2.500
     0     20.4087390     23  2.500
  local pseudopotential read in
  partial core-charges read in
  partial kinetic energy density read in
  atomic valenz-charges read in
  non local Contribution for L=           1  read in
    real space projection operators read in
  non local Contribution for L=           1  read in
    real space projection operators read in
  non local Contribution for L=           2  read in
    real space projection operators read in
  non local Contribution for L=           2  read in
    real space projection operators read in
  non local Contribution for L=           0  read in
    real space projection operators read in
  non local Contribution for L=           0  read in
    real space projection operators read in
    PAW grid and wavefunctions read in

   number of l-projection  operators is LMAX  =           6
   number of lm-projection operators is LMMAX =          18

 POTCAR:    PAW_PBE O 08Apr2002
   VRHFIN =O: s2p4
   LEXCH  = PE
   EATOM  =   432.3788 eV,   31.7789 Ry

   TITEL  = PAW_PBE O 08Apr2002
   LULTRA =        F    use ultrasoft PP ?
   IUNSCR =        1    unscreen: 0-lin 1-nonlin 2-no
   RPACOR =    1.200    partial core radius
   POMASS =   16.000; ZVAL   =    6.000    mass and valenz
   RCORE  =    1.520    outmost cutoff radius
   RWIGS  =    1.550; RWIGS  =    0.820    wigner-seitz radius (au A)
   ENMAX  =  400.000; ENMIN  =  300.000 eV
   ICORE  =        2    local potential
   LCOR   =        T    correct aug charges
   LPAW   =        T    paw PP
   EAUG   =  605.392
   DEXC   =    0.000
   RMAX   =    1.553    core radius for proj-oper
   RAUG   =    1.300    factor for augmentation sphere
   RDEP   =    1.550    radius for radial grids
   RDEPT  =    1.329    core radius for aug-charge

   Atomic configuration
    4 entries
     n  l   j            E        occ.
     1  0  0.50      -514.6923   2.0000
     2  0  0.50       -23.9615   2.0000
     2  1  0.50        -9.0305   4.0000
     3  2  1.50        -9.5241   0.0000
   Description
     l       E           TYP  RCUT    TYP  RCUT
     0    -23.9615318     23  1.200
     0     -9.5240782     23  1.200
     1     -9.0304911     23  1.520
     1      8.1634956     23  1.520
     2     -9.5240782      7  1.500
  local pseudopotential read in
  partial core-charges read in
  partial kinetic energy density read in
  kinetic energy density of atom read in
  atomic valenz-charges read in
  non local Contribution for L=           0  read in
    real space projection operators read in
  non local Contribution for L=           0  read in
    real space projection operators read in
  non local Contribution for L=           1  read in
    real space projection operators read in
  non local Contribution for L=           1  read in
    real space projection operators read in
    PAW grid and wavefunctions read in

   number of l-projection  operators is LMAX  =           4
   number of lm-projection operators is LMMAX =           8

 Optimization of the real space projectors (new method)

 maximal supplied QI-value         = 15.12
 optimisation between [QCUT,QGAM] = [ 10.13, 20.41] = [ 28.73,116.64] Ry
 Optimized for a Real-space Cutoff    1.51 Angstroem

   l    n(q)    QCUT    max X(q) W(low)/X(q) W(high)/X(q)  e(spline)
   1      9    10.129     4.216    0.12E-04    0.72E-04    0.60E-07
   1      9    10.129     5.422    0.84E-04    0.21E-03    0.15E-06
   2      8    10.129    72.084    0.33E-03    0.35E-04    0.17E-06
   2      8    10.129    65.965    0.33E-03    0.37E-04    0.17E-06
   0      9    10.129    41.531    0.17E-03    0.19E-03    0.81E-07
   0      9    10.129    16.290    0.12E-03    0.14E-03    0.64E-07
 Optimization of the real space projectors (new method)

 maximal supplied QI-value         = 24.76
 optimisation between [QCUT,QGAM] = [ 10.15, 20.30] = [ 28.85,115.39] Ry
 Optimized for a Real-space Cutoff    1.38 Angstroem

   l    n(q)    QCUT    max X(q) W(low)/X(q) W(high)/X(q)  e(spline)
   0      8    10.150    20.381    0.22E-03    0.32E-03    0.29E-06
   0      8    10.150    15.268    0.23E-03    0.35E-03    0.30E-06
   1      8    10.150     5.964    0.46E-03    0.53E-03    0.21E-06
   1      8    10.150     5.382    0.38E-03    0.45E-03    0.19E-06
  PAW_PBE Ti_pv 07Sep2000               :
 energy of atom  1       EATOM=-1042.5995
 kinetic energy error for atom=    0.0037 (will be added to EATOM!!)
  PAW_PBE O 08Apr2002                   :
 energy of atom  2       EATOM= -432.3788
 kinetic energy error for atom=    0.1156 (will be added to EATOM!!)


 POSCAR: Ti4 O8
  positions in cartesian coordinates
  No initial velocities read in
 exchange correlation table for  LEXCH =        8
   RHO(1)=    0.500       N(1)  =     2000
   RHO(2)=  100.500       N(2)  =     4000



--------------------------------------------------------------------------------------------------------


 ion  position               nearest neighbor table
   1  0.167  0.167  0.500-  56 1.94  55 1.94  40 1.94  37 1.94 100 2.00  46 2.00  31 3.06  28 3.06
                            11 3.06  10 3.06
   2  0.167  0.500  0.500-  56 1.94  41 1.94  38 1.94  57 1.94 101 2.00  47 2.00  11 3.06  32 3.06
                            29 3.06  12 3.06
   3  0.167  0.833  0.500-  57 1.94  42 1.94  39 1.94  55 1.94 102 2.00  48 2.00  12 3.06  33 3.06
                            30 3.06  10 3.06
   4  0.500  0.167  0.500-  40 1.94  59 1.94  58 1.94  43 1.94 103 2.00  49 2.00  31 3.06  14 3.06
                            13 3.06  34 3.06
   5  0.518  0.500  0.500-  44 1.74  59 1.95  60 1.95 104 2.01  50 2.01  41 2.13  35 2.94  14 3.07
                            15 3.07
   6  0.500  0.833  0.500-  60 1.94  42 1.94  58 1.94  45 1.94 105 2.00  51 2.00  15 3.06  33 3.06
                            13 3.06  36 3.06
   7  0.833  0.167  0.500-  43 1.94  62 1.94  61 1.94  37 1.94 106 2.00  52 2.00  34 3.06  17 3.06
                            16 3.06  28 3.06
   8  0.833  0.500  0.500-  44 1.94  62 1.94  63 1.94  38 1.94 107 2.00  53 2.00  35 3.06  17 3.06
                            29 3.06  18 3.06
   9  0.833  0.833  0.500-  63 1.94  45 1.94  61 1.94  39 1.94 108 2.00  54 2.00  36 3.06  18 3.06
                            30 3.06  16 3.06
  10  0.167  0.000  0.750-  67 1.94  64 1.94  46 1.94  48 1.94  73 2.00  55 2.00  22 3.06  19 3.06
                             1 3.06   3 3.06
  11  0.167  0.333  0.750-  47 1.94  46 1.94  68 1.94  65 1.94  74 2.00  56 2.00   2 3.06  23 3.06
                            20 3.06   1 3.06
  12  0.167  0.667  0.750-  48 1.94  69 1.94  66 1.94  47 1.94  75 2.00  57 2.00   3 3.06  24 3.06
                            21 3.06   2 3.06
  13  0.500  0.000  0.750-  67 1.94  49 1.94  51 1.94  70 1.94  76 2.00  58 2.00  22 3.06   4 3.06
                            25 3.06   6 3.06
  14  0.500  0.333  0.750-  50 1.94  68 1.94  49 1.94  71 1.94  77 2.00  59 2.00  23 3.06   4 3.06
                            26 3.06   5 3.07
  15  0.500  0.667  0.750-  51 1.94  69 1.94  50 1.94  72 1.94  78 2.00  60 2.00   6 3.06  24 3.06
                            27 3.06   5 3.07
  16  0.833  0.000  0.750-  70 1.94  52 1.94  64 1.94  54 1.94  79 2.00  61 2.00  25 3.06   7 3.06
                            19 3.06   9 3.06
  17  0.833  0.333  0.750-  71 1.94  53 1.94  52 1.94  65 1.94  80 2.00  62 2.00  26 3.06   8 3.06
                             7 3.06  20 3.06
  18  0.833  0.667  0.750-  54 1.94  72 1.94  66 1.94  53 1.94  81 2.00  63 2.00  27 3.06   9 3.06
                            21 3.06   8 3.06
  19  0.000  0.000  0.000-  73 1.94  91 1.94  79 1.94  93 1.94  82 2.00  64 2.00  10 3.06  28 3.06
                            16 3.06  30 3.06
  20  0.000  0.333  0.000-  92 1.94  74 1.94  91 1.94  80 1.94  83 2.00  65 2.00  29 3.06  11 3.06
                            28 3.06  17 3.06
  21  0.000  0.667  0.000-  93 1.94  75 1.94  81 1.94  92 1.94  84 2.00  66 2.00  30 3.06  12 3.06
                            18 3.06  29 3.06
  22  0.333  0.000  0.000-  76 1.94  73 1.94  94 1.94  96 1.94  85 2.00  67 2.00  13 3.06  10 3.06
                            31 3.06  33 3.06
  23  0.333  0.333  0.000-  77 1.94  95 1.94  74 1.94  94 1.94  86 2.00  68 2.00  14 3.06  32 3.06
                            11 3.06  31 3.06
  24  0.333  0.667  0.000-  96 1.94  78 1.94  75 1.94  95 1.94  87 2.00  69 2.00  33 3.06  15 3.06
                            12 3.06  32 3.06
  25  0.667  0.000  0.000-  79 1.94  97 1.94  76 1.94  99 1.94  88 2.00  70 2.00  16 3.06  34 3.06
                            13 3.06  36 3.06
  26  0.667  0.333  0.000-  80 1.94  98 1.94  97 1.94  77 1.94  89 2.00  71 2.00  17 3.06  35 3.06
                            34 3.06  14 3.06
  27  0.667  0.667  0.000-  81 1.94  99 1.94  78 1.94  98 1.94  90 2.00  72 2.00  18 3.06  36 3.06
                            15 3.06  35 3.06
  28  0.000  0.167  0.250-  83 1.94  82 1.94 100 1.94 106 1.94  37 2.00  91 2.00   1 3.06  20 3.06
                            19 3.06   7 3.06
  29  0.000  0.500  0.250-  83 1.94 101 1.94  84 1.94 107 1.94  38 2.00  92 2.00  20 3.06   2 3.06
                             8 3.06  21 3.06
  30  0.000  0.833  0.250-  84 1.94 102 1.94  82 1.94 108 1.94  39 2.00  93 2.00  21 3.06   3 3.06
                             9 3.06  19 3.06
  31  0.333  0.167  0.250- 103 1.94  86 1.94  85 1.94 100 1.94  40 2.00  94 2.00   4 3.06   1 3.06
                            23 3.06  22 3.06
  32  0.333  0.500  0.250-  86 1.94 104 1.94 101 1.94  87 1.94  41 2.00  95 2.00  23 3.06   2 3.06
                            24 3.06
  33  0.333  0.833  0.250-  87 1.94 105 1.94 102 1.94  85 1.94  42 2.00  96 2.00  24 3.06   6 3.06
                             3 3.06  22 3.06
  34  0.667  0.167  0.250- 106 1.94  89 1.94  88 1.94 103 1.94  43 2.00  97 2.00   7 3.06  26 3.06
                            25 3.06   4 3.06
  35  0.667  0.500  0.250- 107 1.94  89 1.94  90 1.94 104 1.94  44 2.00  98 2.00   5 2.94   8 3.06
                            26 3.06  27 3.06
  36  0.667  0.833  0.250-  90 1.94 108 1.94  88 1.94 105 1.94  45 2.00  99 2.00   9 3.06  27 3.06
                            25 3.06   6 3.06
  37  0.000  0.167  0.458-   1 1.94   7 1.94  28 2.00
  38  0.000  0.500  0.458-   2 1.94   8 1.94  29 2.00
  39  0.000  0.833  0.458-   3 1.94   9 1.94  30 2.00
  40  0.333  0.167  0.458-   4 1.94   1 1.94  31 2.00
  41  0.333  0.500  0.458-   2 1.94  32 2.00   5 2.13
  42  0.333  0.833  0.458-   6 1.94   3 1.94  33 2.00
  43  0.667  0.167  0.458-   7 1.94   4 1.94  34 2.00
  44  0.667  0.500  0.458-   5 1.74   8 1.94  35 2.00
  45  0.667  0.833  0.458-   9 1.94   6 1.94  36 2.00
  46  0.167  0.167  0.708-  11 1.94  10 1.94   1 2.00
  47  0.167  0.500  0.708-  11 1.94  12 1.94   2 2.00
  48  0.167  0.833  0.708-  12 1.94  10 1.94   3 2.00
  49  0.500  0.167  0.708-  14 1.94  13 1.94   4 2.00
  50  0.500  0.500  0.708-  14 1.94  15 1.94   5 2.01
  51  0.500  0.833  0.708-  15 1.94  13 1.94   6 2.00
  52  0.833  0.167  0.708-  17 1.94  16 1.94   7 2.00
  53  0.833  0.500  0.708-  17 1.94  18 1.94   8 2.00
  54  0.833  0.833  0.708-  18 1.94  16 1.94   9 2.00
  55  0.167  0.000  0.542-   1 1.94   3 1.94  10 2.00
  56  0.167  0.333  0.542-   2 1.94   1 1.94  11 2.00
  57  0.167  0.667  0.542-   3 1.94   2 1.94  12 2.00
  58  0.500  0.000  0.542-   4 1.94   6 1.94  13 2.00
  59  0.500  0.333  0.542-   4 1.94   5 1.95  14 2.00
  60  0.500  0.667  0.542-   6 1.94   5 1.95  15 2.00
  61  0.833  0.000  0.542-   7 1.94   9 1.94  16 2.00
  62  0.833  0.333  0.542-   8 1.94   7 1.94  17 2.00
  63  0.833  0.667  0.542-   9 1.94   8 1.94  18 2.00
  64  0.000  0.000  0.792-  10 1.94  16 1.94  19 2.00
  65  0.000  0.333  0.792-  11 1.94  17 1.94  20 2.00
  66  0.000  0.667  0.792-  12 1.94  18 1.94  21 2.00
  67  0.333  0.000  0.792-  13 1.94  10 1.94  22 2.00
  68  0.333  0.333  0.792-  14 1.94  11 1.94  23 2.00
  69  0.333  0.667  0.792-  15 1.94  12 1.94  24 2.00
  70  0.667  0.000  0.792-  16 1.94  13 1.94  25 2.00
  71  0.667  0.333  0.792-  17 1.94  14 1.94  26 2.00
  72  0.667  0.667  0.792-  18 1.94  15 1.94  27 2.00
  73  0.167  0.000  0.958-  22 1.94  19 1.94  10 2.00
  74  0.167  0.333  0.958-  23 1.94  20 1.94  11 2.00
  75  0.167  0.667  0.958-  24 1.94  21 1.94  12 2.00
  76  0.500  0.000  0.958-  22 1.94  25 1.94  13 2.00
  77  0.500  0.333  0.958-  23 1.94  26 1.94  14 2.00
  78  0.500  0.667  0.958-  24 1.94  27 1.94  15 2.00
  79  0.833  0.000  0.958-  25 1.94  19 1.94  16 2.00
  80  0.833  0.333  0.958-  26 1.94  20 1.94  17 2.00
  81  0.833  0.667  0.958-  27 1.94  21 1.94  18 2.00
  82  0.000  0.000  0.208-  28 1.94  30 1.94  19 2.00
  83  0.000  0.333  0.208-  29 1.94  28 1.94  20 2.00
  84  0.000  0.667  0.208-  30 1.94  29 1.94  21 2.00
  85  0.333  0.000  0.208-  31 1.94  33 1.94  22 2.00
  86  0.333  0.333  0.208-  32 1.94  31 1.94  23 2.00
  87  0.333  0.667  0.208-  33 1.94  32 1.94  24 2.00
  88  0.667  0.000  0.208-  34 1.94  36 1.94  25 2.00
  89  0.667  0.333  0.208-  35 1.94  34 1.94  26 2.00
  90  0.667  0.667  0.208-  36 1.94  35 1.94  27 2.00
  91  0.000  0.167  0.042-  20 1.94  19 1.94  28 2.00
  92  0.000  0.500  0.042-  20 1.94  21 1.94  29 2.00
  93  0.000  0.833  0.042-  21 1.94  19 1.94  30 2.00
  94  0.333  0.167  0.042-  23 1.94  22 1.94  31 2.00
  95  0.333  0.500  0.042-  23 1.94  24 1.94  32 2.00
  96  0.333  0.833  0.042-  24 1.94  22 1.94  33 2.00
  97  0.667  0.167  0.042-  26 1.94  25 1.94  34 2.00
  98  0.667  0.500  0.042-  26 1.94  27 1.94  35 2.00
  99  0.667  0.833  0.042-  27 1.94  25 1.94  36 2.00
 100  0.167  0.167  0.292-  31 1.94  28 1.94   1 2.00
 101  0.167  0.500  0.292-  32 1.94  29 1.94   2 2.00
 102  0.167  0.833  0.292-  33 1.94  30 1.94   3 2.00
 103  0.500  0.167  0.292-  31 1.94  34 1.94   4 2.00
 104  0.500  0.500  0.292-  32 1.94  35 1.94   5 2.01
 105  0.500  0.833  0.292-  33 1.94  36 1.94   6 2.00
 106  0.833  0.167  0.292-  34 1.94  28 1.94   7 2.00
 107  0.833  0.500  0.292-  35 1.94  29 1.94   8 2.00
 108  0.833  0.833  0.292-  36 1.94  30 1.94   9 2.00


IMPORTANT INFORMATION: All symmetrisations will be switched off!
NOSYMM: (Re-)initialisation of all symmetry stuff for point group C_1.


----------------------------------------------------------------------------------------

                                     Primitive cell

  volume of cell :    1243.1447

  direct lattice vectors                    reciprocal lattice vectors
    11.376843452  0.000000000  0.000000000     0.087897843  0.000000000  0.000000000
     0.000000000 11.376843452  0.000000000     0.000000000  0.087897843  0.000000000
     0.000000000  0.000000000  9.604574204     0.000000000  0.000000000  0.104117057

  length of vectors
    11.376843452 11.376843452  9.604574204     0.087897843  0.087897843  0.104117057

  position of ions in fractional coordinates (direct lattice)
     0.166666672  0.166666672  0.500000000
     0.166666672  0.500000000  0.500000000
     0.166666672  0.833333313  0.500000000
     0.500000000  0.166666672  0.500000000
     0.517579569  0.500000000  0.500000000
     0.500000000  0.833333313  0.500000000
     0.833333313  0.166666672  0.500000000
     0.833333313  0.500000000  0.500000000
     0.833333313  0.833333313  0.500000000
     0.166666672  0.000000000  0.750000000
     0.166666672  0.333333343  0.750000000
     0.166666672  0.666666687  0.750000000
     0.500000000  0.000000000  0.750000000
     0.500000000  0.333333343  0.750000000
     0.500000000  0.666666687  0.750000000
     0.833333313  0.000000000  0.750000000
     0.833333313  0.333333343  0.750000000
     0.833333313  0.666666687  0.750000000
     0.000000000  0.000000000  0.000000000
     0.000000000  0.333333343  0.000000000
     0.000000000  0.666666687  0.000000000
     0.333333343  0.000000000  0.000000000
     0.333333343  0.333333343  0.000000000
     0.333333343  0.666666687  0.000000000
     0.666666687  0.000000000  0.000000000
     0.666666687  0.333333343  0.000000000
     0.666666687  0.666666687  0.000000000
     0.000000000  0.166666672  0.250000000
     0.000000000  0.500000000  0.250000000
     0.000000000  0.833333313  0.250000000
     0.333333343  0.166666672  0.250000000
     0.333333343  0.500000000  0.250000000
     0.333333343  0.833333313  0.250000000
     0.666666687  0.166666672  0.250000000
     0.666666687  0.500000000  0.250000000
     0.666666687  0.833333313  0.250000000
     0.000000000  0.166666672  0.457898587
     0.000000000  0.500000000  0.457898587
     0.000000000  0.833333313  0.457898587
     0.333333343  0.166666672  0.457898587
     0.333333343  0.500000000  0.457898587
     0.333333343  0.833333313  0.457898587
     0.666666687  0.166666672  0.457898587
     0.666666687  0.500000000  0.457898587
     0.666666687  0.833333313  0.457898587
     0.166666672  0.166666672  0.707898617
     0.166666672  0.500000000  0.707898617
     0.166666672  0.833333313  0.707898617
     0.500000000  0.166666672  0.707898617
     0.500000000  0.500000000  0.707898617
     0.500000000  0.833333313  0.707898617
     0.833333313  0.166666672  0.707898617
     0.833333313  0.500000000  0.707898617
     0.833333313  0.833333313  0.707898617
     0.166666672  0.000000000  0.542101383
     0.166666672  0.333333343  0.542101383
     0.166666672  0.666666687  0.542101383
     0.500000000  0.000000000  0.542101383
     0.500000000  0.333333343  0.542101383
     0.500000000  0.666666687  0.542101383
     0.833333313  0.000000000  0.542101383
     0.833333313  0.333333343  0.542101383
     0.833333313  0.666666687  0.542101383
     0.000000000  0.000000000  0.792101383
     0.000000000  0.333333343  0.792101383
     0.000000000  0.666666687  0.792101383
     0.333333343  0.000000000  0.792101383
     0.333333343  0.333333343  0.792101383
     0.333333343  0.666666687  0.792101383
     0.666666687  0.000000000  0.792101383
     0.666666687  0.333333343  0.792101383
     0.666666687  0.666666687  0.792101383
     0.166666672  0.000000000  0.957898617
     0.166666672  0.333333343  0.957898617
     0.166666672  0.666666687  0.957898617
     0.500000000  0.000000000  0.957898617
     0.500000000  0.333333343  0.957898617
     0.500000000  0.666666687  0.957898617
     0.833333313  0.000000000  0.957898617
     0.833333313  0.333333343  0.957898617
     0.833333313  0.666666687  0.957898617
     0.000000000  0.000000000  0.207898602
     0.000000000  0.333333343  0.207898602
     0.000000000  0.666666687  0.207898602
     0.333333343  0.000000000  0.207898602
     0.333333343  0.333333343  0.207898602
     0.333333343  0.666666687  0.207898602
     0.666666687  0.000000000  0.207898602
     0.666666687  0.333333343  0.207898602
     0.666666687  0.666666687  0.207898602
     0.000000000  0.166666672  0.042101406
     0.000000000  0.500000000  0.042101406
     0.000000000  0.833333313  0.042101406
     0.333333343  0.166666672  0.042101406
     0.333333343  0.500000000  0.042101406
     0.333333343  0.833333313  0.042101406
     0.666666687  0.166666672  0.042101406
     0.666666687  0.500000000  0.042101406
     0.666666687  0.833333313  0.042101406
     0.166666672  0.166666672  0.292101413
     0.166666672  0.500000000  0.292101413
     0.166666672  0.833333313  0.292101413
     0.500000000  0.166666672  0.292101413
     0.500000000  0.500000000  0.292101413
     0.500000000  0.833333313  0.292101413
     0.833333313  0.166666672  0.292101413
     0.833333313  0.500000000  0.292101413
     0.833333313  0.833333313  0.292101413

  ion indices of the primitive-cell ions
   primitive index   ion index
                 1           1
                 2           2
                 3           3
                 4           4
                 5           5
                 6           6
                 7           7
                 8           8
                 9           9
                10          10
                11          11
                12          12
                13          13
                14          14
                15          15
                16          16
                17          17
                18          18
                19          19
                20          20
                21          21
                22          22
                23          23
                24          24
                25          25
                26          26
                27          27
                28          28
                29          29
                30          30
                31          31
                32          32
                33          33
                34          34
                35          35
                36          36
                37          37
                38          38
                39          39
                40          40
                41          41
                42          42
                43          43
                44          44
                45          45
                46          46
                47          47
                48          48
                49          49
                50          50
                51          51
                52          52
                53          53
                54          54
                55          55
                56          56
                57          57
                58          58
                59          59
                60          60
                61          61
                62          62
                63          63
                64          64
                65          65
                66          66
                67          67
                68          68
                69          69
                70          70
                71          71
                72          72
                73          73
                74          74
                75          75
                76          76
                77          77
                78          78
                79          79
                80          80
                81          81
                82          82
                83          83
                84          84
                85          85
                86          86
                87          87
                88          88
                89          89
                90          90
                91          91
                92          92
                93          93
                94          94
                95          95
                96          96
                97          97
                98          98
                99          99
               100         100
               101         101
               102         102
               103         103
               104         104
               105         105
               106         106
               107         107
               108         108

----------------------------------------------------------------------------------------



 KPOINTS: K-Points

Automatic generation of k-mesh.
 Grid dimensions read from file:
 generate k-points for:    2    2    2

 Generating k-lattice:

  Cartesian coordinates                     Fractional coordinates (reciprocal lattice)
     0.043948922  0.000000000  0.000000000     0.500000000  0.000000000  0.000000000
     0.000000000  0.043948922  0.000000000     0.000000000  0.500000000  0.000000000
     0.000000000  0.000000000  0.052058529     0.000000000  0.000000000  0.500000000

  Length of vectors
     0.043948922  0.043948922  0.052058529

  Shift w.r.t. Gamma in fractional coordinates (k-lattice)
     0.500000000  0.500000000  0.500000000


 Subroutine IBZKPT returns following result:
 ===========================================

 Found      4 irreducible k-points:

 Following reciprocal coordinates:
            Coordinates               Weight
  0.250000  0.250000  0.250000      2.000000
 -0.250000  0.250000  0.250000      2.000000
 -0.250000 -0.250000  0.250000      2.000000
  0.250000 -0.250000  0.250000      2.000000

 Following cartesian coordinates:
            Coordinates               Weight
  0.021974  0.021974  0.026029      2.000000
 -0.021974  0.021974  0.026029      2.000000
 -0.021974 -0.021974  0.026029      2.000000
  0.021974 -0.021974  0.026029      2.000000


 Subroutine IBZKPT_HF returns following result:
 ==============================================

 Found      8 k-points in 1st BZ
 the following      8 k-points will be used (e.g. in the exchange kernel)
 Following reciprocal coordinates:   # in IRBZ
  0.250000  0.250000  0.250000    0.12500000   1 t-inv F
 -0.250000  0.250000  0.250000    0.12500000   2 t-inv F
 -0.250000 -0.250000  0.250000    0.12500000   3 t-inv F
  0.250000 -0.250000  0.250000    0.12500000   4 t-inv F
 -0.250000 -0.250000 -0.250000    0.12500000   1 t-inv T
  0.250000 -0.250000 -0.250000    0.12500000   2 t-inv T
  0.250000  0.250000 -0.250000    0.12500000   3 t-inv T
 -0.250000  0.250000 -0.250000    0.12500000   4 t-inv T


--------------------------------------------------------------------------------------------------------




 Dimension of arrays:
   k-points           NKPTS =      4   k-points in BZ     NKDIM =      4   number of bands    NBANDS=    476
   number of dos      NEDOS =    301   number of ions     NIONS =    108
   non local maximal  LDIM  =      6   non local SUM 2l+1 LMDIM =     18
   total plane-waves  NPLWV = 150528
   max r-space proj   IRMAX =   1791   max aug-charges    IRDMAX=   4900
   dimension x,y,z NGX =    56 NGY =   56 NGZ =   48
   dimension x,y,z NGXF=   112 NGYF=  112 NGZF=   96
   support grid    NGXF=   112 NGYF=  112 NGZF=   96
   ions per type =              36  72
   NGX,Y,Z   is equivalent  to a cutoff of   8.18,  8.18,  8.31 a.u.
   NGXF,Y,Z  is equivalent  to a cutoff of  16.37, 16.37, 16.62 a.u.

 SYSTEM =  unknown system
 POSCAR =  Ti4 O8

 Startparameter for this run:
   NWRITE =      2    write-flag & timer
   PREC   = normal    normal or accurate (medium, high low for compatibility)
   ISTART =      0    job   : 0-new  1-cont  2-samecut
   ICHARG =      2    charge: 1-file 2-atom 10-const
   ISPIN  =      1    spin polarized calculation?
   LNONCOLLINEAR =      F non collinear calculations
   LSORBIT =      F    spin-orbit coupling
   INIWAV =      1    electr: 0-lowe 1-rand  2-diag
   LASPH  =      F    aspherical Exc in radial PAW
 Electronic Relaxation 1
   ENCUT  =  400.0 eV  29.40 Ry    5.42 a.u.  18.55 18.55 15.66*2*pi/ulx,y,z
   ENINI  =  400.0     initial cutoff
   ENAUG  =  605.4 eV  augmentation charge cutoff
   NELM   =     80;   NELMIN=  4; NELMDL= -5     # of ELM steps
   EDIFF  = 0.1E-06   stopping-criterion for ELM
   LREAL  =      T    real-space projection
   NLSPLINE    = F    spline interpolate recip. space projectors
   LCOMPAT=      F    compatible to vasp.4.4
   GGA_COMPAT  = T    GGA compatible to vasp.4.4-vasp.4.6
   LMAXPAW     = -100 max onsite density
   LMAXMIX     =    2 max onsite mixed and CHGCAR
   VOSKOWN=      0    Vosko Wilk Nusair interpolation
   ROPT   =   -0.00050  -0.00050
 Ionic relaxation
   EDIFFG = 0.1E-05   stopping-criterion for IOM
   NSW    =      0    number of steps for IOM
   NBLOCK =      1;   KBLOCK =      1    inner block; outer block
   IBRION =     -1    ionic relax: 0-MD 1-quasi-New 2-CG
   NFREE  =      0    steps in history (QN), initial steepest desc. (CG)
   ISIF   =      2    stress and relaxation
   IWAVPR =     10    prediction:  0-non 1-charg 2-wave 3-comb
   ISYM   =      0    0-nonsym 1-usesym 2-fastsym
   LCORR  =      T    Harris-Foulkes like correction to forces

   POTIM  = 0.5000    time-step for ionic-motion
   TEIN   =    0.0    initial temperature
   TEBEG  =    0.0;   TEEND  =   0.0 temperature during run
   SMASS  =  -3.00    Nose mass-parameter (am)
   estimated Nose-frequenzy (Omega)   =  0.10E-29 period in steps = 0.13E+47 mass=  -0.296E-26a.u.
   SCALEE = 1.0000    scale energy and forces
   NPACO  =    256;   APACO  = 10.0  distance and # of slots for P.C.
   PSTRESS=    0.0 pullay stress

  Mass of Ions in am
   POMASS =  47.88 16.00
  Ionic Valenz
   ZVAL   =  10.00  6.00
  Atomic Wigner-Seitz radii
   RWIGS  =  -1.00 -1.00
  virtual crystal weights
   VCA    =   1.00  1.00
   NELECT =     792.0000    total number of electrons
   NUPDOWN=      -1.0000    fix difference up-down

 DOS related values:
   EMIN   =  10.00;   EMAX   =-10.00  energy-range for DOS
   EFERMI =   0.00
   ISMEAR =     0;   SIGMA  =   0.10  broadening in eV -4-tet -1-fermi 0-gaus

 Electronic relaxation 2 (details)
   IALGO  =     38    algorithm
   LDIAG  =      T    sub-space diagonalisation (order eigenvalues)
   LSUBROT=      F    optimize rotation matrix (better conditioning)
   TURBO    =      0    0=normal 1=particle mesh
   IRESTART =      0    0=no restart 2=restart with 2 vectors
   NREBOOT  =      0    no. of reboots
   NMIN     =      0    reboot dimension
   EREF     =   0.00    reference energy to select bands
   IMIX   =      4    mixing-type and parameters
     AMIX     =   0.40;   BMIX     =  1.00
     AMIX_MAG =   1.60;   BMIX_MAG =  1.00
     AMIN     =   0.10
     WC   =   100.;   INIMIX=   1;  MIXPRE=   1;  MAXMIX= -45

 Intra band minimization:
   WEIMIN = 0.0000     energy-eigenvalue tresh-hold
   EBREAK =  0.53E-10  absolut break condition
   DEPER  =   0.30     relativ break condition

   TIME   =   0.40     timestep for ELM

  volume/ion in A,a.u.               =      11.51        77.68
  Fermi-wavevector in a.u.,A,eV,Ry     =   1.408670  2.662001 26.998745  1.984352
  Thomas-Fermi vector in A             =   2.530804

 Write flags
   LWAVE        =      F    write WAVECAR
   LDOWNSAMPLE  =      F    k-point downsampling of WAVECAR
   LCHARG       =      F    write CHGCAR
   LVTOT        =      F    write LOCPOT, total local potential
   LVHAR        =      F    write LOCPOT, Hartree potential only
   LELF         =      F    write electronic localiz. function (ELF)
   LORBIT       =      0    0 simple, 1 ext, 2 COOP (PROOUT), +10 PAW based schemes


 Dipole corrections
   LMONO  =      F    monopole corrections only (constant potential shift)
   LDIPOL =      F    correct potential (dipole corrections)
   IDIPOL =      0    1-x, 2-y, 3-z, 4-all directions
   EPSILON=  1.0000000 bulk dielectric constant

 Exchange correlation treatment:
   GGA     =    --    GGA type
   LEXCH   =     8    internal setting for exchange type
   LIBXC   =     F    Libxc
   VOSKOWN =     0    Vosko Wilk Nusair interpolation
   LHFCALC =     F    Hartree Fock is set to
   LHFONE  =     F    Hartree Fock one center treatment
   AEXX    =    0.0000 exact exchange contribution

 Linear response parameters
   LEPSILON=     T    determine dielectric tensor
   LRPA    =     F    only Hartree local field effects (RPA)
   LNABLA  =     F    use nabla operator in PAW spheres
   LVEL    =     F    velocity operator in full k-point grid
   CSHIFT  =0.1000    complex shift for real part using Kramers Kronig
   OMEGAMAX=  -1.0    maximum frequency
   DEG_THRESHOLD= 0.2000000E-02 threshold for treating states as degnerate
   RTIME   =   -0.100 relaxation time in fs
  (WPLASMAI=    0.000 imaginary part of plasma frequency in eV, 0.658/RTIME)
   DFIELD  = 0.0000000 0.0000000 0.0000000 field for delta impulse in time

  Optional k-point grid parameters
   LKPOINTS_OPT  =     F    use optional k-point grid
   KPOINTS_OPT_MODE=     1    mode for optional k-point grid

 Orbital magnetization related:
   ORBITALMAG=     F  switch on orbital magnetization
   LCHIMAG   =     F  perturbation theory with respect to B field
   DQ        =  0.001000  dq finite difference perturbation B field
   LLRAUG    =     F  two centre corrections for induced B field

 PEAD related settings:
   LPEAD      =     T    switch on PEAD
   IPEAD      =     4    finite difference order for dpsi/dk
   LCALCPOL   =     F    calculate macroscopic polarization
   LCALCEPS   =     F    calculate dielectric tensor
   EFIELD_PEAD=    0.0000    0.0000    0.0000
   SKIP_EDOTP =     F
   LRPA       =     F
   SKIP_SCF   =     F


--------------------------------------------------------------------------------------------------------


 Static calculation
 charge density and potential will be updated during run
 non-spin polarized calculation
 Variant of blocked Davidson
 Davidson routine will perform the subspace rotation
 perform sub-space diagonalisation
    after iterative eigenvector-optimisation
 modified Broyden-mixing scheme, WC =      100.0
 initial mixing is a Kerker type mixing with AMIX =  0.4000 and BMIX =      1.0000
 Hartree-type preconditioning will be used
 using additional bands           80
 real space projection scheme for non local part
 use partial core corrections
 calculate Harris-corrections to forces
   (improved forces if not selfconsistent)
 use gradient corrections
 use of overlap-Matrix (Vanderbilt PP)
 Gauss-broadening in eV      SIGMA  =   0.10


--------------------------------------------------------------------------------------------------------


  energy-cutoff  :      400.00
  volume of cell :     1243.14
      direct lattice vectors                 reciprocal lattice vectors
    11.376843452  0.000000000  0.000000000     0.087897843  0.000000000  0.000000000
     0.000000000 11.376843452  0.000000000     0.000000000  0.087897843  0.000000000
     0.000000000  0.000000000  9.604574204     0.000000000  0.000000000  0.104117057

  length of vectors
    11.376843452 11.376843452  9.604574204     0.087897843  0.087897843  0.104117057



 k-points in units of 2pi/SCALE and weight: K-Points
   0.02197446  0.02197446  0.02602926       0.250
  -0.02197446  0.02197446  0.02602926       0.250
  -0.02197446 -0.02197446  0.02602926       0.250
   0.02197446 -0.02197446  0.02602926       0.250

 k-points in reciprocal lattice and weights: K-Points
   0.25000000  0.25000000  0.25000000       0.250
  -0.25000000  0.25000000  0.25000000       0.250
  -0.25000000 -0.25000000  0.25000000       0.250
   0.25000000 -0.25000000  0.25000000       0.250

 position of ions in fractional coordinates (direct lattice)
   0.16666667  0.16666667  0.50000000
   0.16666667  0.50000000  0.50000000
   0.16666667  0.83333331  0.50000000
   0.50000000  0.16666667  0.50000000
   0.51757957  0.50000000  0.50000000
   0.50000000  0.83333331  0.50000000
   0.83333331  0.16666667  0.50000000
   0.83333331  0.50000000  0.50000000
   0.83333331  0.83333331  0.50000000
   0.16666667  0.00000000  0.75000000
   0.16666667  0.33333334  0.75000000
   0.16666667  0.66666669  0.75000000
   0.50000000  0.00000000  0.75000000
   0.50000000  0.33333334  0.75000000
   0.50000000  0.66666669  0.75000000
   0.83333331  0.00000000  0.75000000
   0.83333331  0.33333334  0.75000000
   0.83333331  0.66666669  0.75000000
   0.00000000  0.00000000  0.00000000
   0.00000000  0.33333334  0.00000000
   0.00000000  0.66666669  0.00000000
   0.33333334  0.00000000  0.00000000
   0.33333334  0.33333334  0.00000000
   0.33333334  0.66666669  0.00000000
   0.66666669  0.00000000  0.00000000
   0.66666669  0.33333334  0.00000000
   0.66666669  0.66666669  0.00000000
   0.00000000  0.16666667  0.25000000
   0.00000000  0.50000000  0.25000000
   0.00000000  0.83333331  0.25000000
   0.33333334  0.16666667  0.25000000
   0.33333334  0.50000000  0.25000000
   0.33333334  0.83333331  0.25000000
   0.66666669  0.16666667  0.25000000
   0.66666669  0.50000000  0.25000000
   0.66666669  0.83333331  0.25000000
   0.00000000  0.16666667  0.45789859
   0.00000000  0.50000000  0.45789859
   0.00000000  0.83333331  0.45789859
   0.33333334  0.16666667  0.45789859
   0.33333334  0.50000000  0.45789859
   0.33333334  0.83333331  0.45789859
   0.66666669  0.16666667  0.45789859
   0.66666669  0.50000000  0.45789859
   0.66666669  0.83333331  0.45789859
   0.16666667  0.16666667  0.70789862
   0.16666667  0.50000000  0.70789862
   0.16666667  0.83333331  0.70789862
   0.50000000  0.16666667  0.70789862
   0.50000000  0.50000000  0.70789862
   0.50000000  0.83333331  0.70789862
   0.83333331  0.16666667  0.70789862
   0.83333331  0.50000000  0.70789862
   0.83333331  0.83333331  0.70789862
   0.16666667  0.00000000  0.54210138
   0.16666667  0.33333334  0.54210138
   0.16666667  0.66666669  0.54210138
   0.50000000  0.00000000  0.54210138
   0.50000000  0.33333334  0.54210138
   0.50000000  0.66666669  0.54210138
   0.83333331  0.00000000  0.54210138
   0.83333331  0.33333334  0.54210138
   0.83333331  0.66666669  0.54210138
   0.00000000  0.00000000  0.79210138
   0.00000000  0.33333334  0.79210138
   0.00000000  0.66666669  0.79210138
   0.33333334  0.00000000  0.79210138
   0.33333334  0.33333334  0.79210138
   0.33333334  0.66666669  0.79210138
   0.66666669  0.00000000  0.79210138
   0.66666669  0.33333334  0.79210138
   0.66666669  0.66666669  0.79210138
   0.16666667  0.00000000  0.95789862
   0.16666667  0.33333334  0.95789862
   0.16666667  0.66666669  0.95789862
   0.50000000  0.00000000  0.95789862
   0.50000000  0.33333334  0.95789862
   0.50000000  0.66666669  0.95789862
   0.83333331  0.00000000  0.95789862
   0.83333331  0.33333334  0.95789862
   0.83333331  0.66666669  0.95789862
   0.00000000  0.00000000  0.20789860
   0.00000000  0.33333334  0.20789860
   0.00000000  0.66666669  0.20789860
   0.33333334  0.00000000  0.20789860
   0.33333334  0.33333334  0.20789860
   0.33333334  0.66666669  0.20789860
   0.66666669  0.00000000  0.20789860
   0.66666669  0.33333334  0.20789860
   0.66666669  0.66666669  0.20789860
   0.00000000  0.16666667  0.04210141
   0.00000000  0.50000000  0.04210141
   0.00000000  0.83333331  0.04210141
   0.33333334  0.16666667  0.04210141
   0.33333334  0.50000000  0.04210141
   0.33333334  0.83333331  0.04210141
   0.66666669  0.16666667  0.04210141
   0.66666669  0.50000000  0.04210141
   0.66666669  0.83333331  0.04210141
   0.16666667  0.16666667  0.29210141
   0.16666667  0.50000000  0.29210141
   0.16666667  0.83333331  0.29210141
   0.50000000  0.16666667  0.29210141
   0.50000000  0.50000000  0.29210141
   0.50000000  0.83333331  0.29210141
   0.83333331  0.16666667  0.29210141
   0.83333331  0.50000000  0.29210141
   0.83333331  0.83333331  0.29210141

 position of ions in cartesian coordinates  (Angst):
   1.89614063  1.89614063  4.80228710
   1.89614063  5.68842173  4.80228710
   1.89614063  9.48070265  4.80228710
   5.68842173  1.89614063  4.80228710
   5.88842173  5.68842173  4.80228710
   5.68842173  9.48070265  4.80228710
   9.48070265  1.89614063  4.80228710
   9.48070265  5.68842173  4.80228710
   9.48070265  9.48070265  4.80228710
   1.89614063  0.00000000  7.20343065
   1.89614063  3.79228126  7.20343065
   1.89614063  7.58456253  7.20343065
   5.68842173  0.00000000  7.20343065
   5.68842173  3.79228126  7.20343065
   5.68842173  7.58456253  7.20343065
   9.48070265  0.00000000  7.20343065
   9.48070265  3.79228126  7.20343065
   9.48070265  7.58456253  7.20343065
   0.00000000  0.00000000  0.00000000
   0.00000000  3.79228126  0.00000000
   0.00000000  7.58456253  0.00000000
   3.79228126  0.00000000  0.00000000
   3.79228126  3.79228126  0.00000000
   3.79228126  7.58456253  0.00000000
   7.58456253  0.00000000  0.00000000
   7.58456253  3.79228126  0.00000000
   7.58456253  7.58456253  0.00000000
   0.00000000  1.89614063  2.40114355
   0.00000000  5.68842173  2.40114355
   0.00000000  9.48070265  2.40114355
   3.79228126  1.89614063  2.40114355
   3.79228126  5.68842173  2.40114355
   3.79228126  9.48070265  2.40114355
   7.58456253  1.89614063  2.40114355
   7.58456253  5.68842173  2.40114355
   7.58456253  9.48070265  2.40114355
   0.00000000  1.89614063  4.39792096
   0.00000000  5.68842173  4.39792096
   0.00000000  9.48070265  4.39792096
   3.79228126  1.89614063  4.39792096
   3.79228126  5.68842173  4.39792096
   3.79228126  9.48070265  4.39792096
   7.58456253  1.89614063  4.39792096
   7.58456253  5.68842173  4.39792096
   7.58456253  9.48070265  4.39792096
   1.89614063  1.89614063  6.79906479
   1.89614063  5.68842173  6.79906479
   1.89614063  9.48070265  6.79906479
   5.68842173  1.89614063  6.79906479
   5.68842173  5.68842173  6.79906479
   5.68842173  9.48070265  6.79906479
   9.48070265  1.89614063  6.79906479
   9.48070265  5.68842173  6.79906479
   9.48070265  9.48070265  6.79906479
   1.89614063  0.00000000  5.20665296
   1.89614063  3.79228126  5.20665296
   1.89614063  7.58456253  5.20665296
   5.68842173  0.00000000  5.20665296
   5.68842173  3.79228126  5.20665296
   5.68842173  7.58456253  5.20665296
   9.48070265  0.00000000  5.20665296
   9.48070265  3.79228126  5.20665296
   9.48070265  7.58456253  5.20665296
   0.00000000  0.00000000  7.60779651
   0.00000000  3.79228126  7.60779651
   0.00000000  7.58456253  7.60779651
   3.79228126  0.00000000  7.60779651
   3.79228126  3.79228126  7.60779651
   3.79228126  7.58456253  7.60779651
   7.58456253  0.00000000  7.60779651
   7.58456253  3.79228126  7.60779651
   7.58456253  7.58456253  7.60779651
   1.89614063  0.00000000  9.20020834
   1.89614063  3.79228126  9.20020834
   1.89614063  7.58456253  9.20020834
   5.68842173  0.00000000  9.20020834
   5.68842173  3.79228126  9.20020834
   5.68842173  7.58456253  9.20020834
   9.48070265  0.00000000  9.20020834
   9.48070265  3.79228126  9.20020834
   9.48070265  7.58456253  9.20020834
   0.00000000  0.00000000  1.99677755
   0.00000000  3.79228126  1.99677755
   0.00000000  7.58456253  1.99677755
   3.79228126  0.00000000  1.99677755
   3.79228126  3.79228126  1.99677755
   3.79228126  7.58456253  1.99677755
   7.58456253  0.00000000  1.99677755
   7.58456253  3.79228126  1.99677755
   7.58456253  7.58456253  1.99677755
   0.00000000  1.89614063  0.40436607
   0.00000000  5.68842173  0.40436607
   0.00000000  9.48070265  0.40436607
   3.79228126  1.89614063  0.40436607
   3.79228126  5.68842173  0.40436607
   3.79228126  9.48070265  0.40436607
   7.58456253  1.89614063  0.40436607
   7.58456253  5.68842173  0.40436607
   7.58456253  9.48070265  0.40436607
   1.89614063  1.89614063  2.80550970
   1.89614063  5.68842173  2.80550970
   1.89614063  9.48070265  2.80550970
   5.68842173  1.89614063  2.80550970
   5.68842173  5.68842173  2.80550970
   5.68842173  9.48070265  2.80550970
   9.48070265  1.89614063  2.80550970
   9.48070265  5.68842173  2.80550970
   9.48070265  9.48070265  2.80550970



--------------------------------------------------------------------------------------------------------


 k-point   1 :   0.2500 0.2500 0.2500  plane waves:   22590
 k-point   2 :  -0.2500 0.2500 0.2500  plane waves:   22590
 k-point   3 :  -0.2500-0.2500 0.2500  plane waves:   22590
 k-point   4 :   0.2500-0.2500 0.2500  plane waves:   22590

 maximum and minimum number of plane-waves per node :     22590    22590

 maximum number of plane-waves:     22590
 maximum index in each direction:
   IXMAX=   18   IYMAX=   18   IZMAX=   15
   IXMIN=  -18   IYMIN=  -18   IZMIN=  -15


 serial   3D FFT for wavefunctions
 parallel 3D FFT for charge:
    minimum data exchange during FFTs selected (reduces bandwidth)


 total amount of memory used by VASP MPI-rank0   266724. kBytes
=======================================================================

   base      :      30000. kBytes
   nonlr-proj:      19555. kBytes
   fftplans  :      10927. kBytes
   grid      :      23181. kBytes
   one-center:       1679. kBytes
   wavefun   :     181382. kBytes

     INWAV:  cpu time      0.0000: real time      0.0002
 Broyden mixing: mesh for mixing (old mesh)
   NGX = 37   NGY = 37   NGZ = 31
  (NGX  =112   NGY  =112   NGZ  = 96)
  gives a total of  42439 points

 initial charge density was supplied:
 charge density of overlapping atoms calculated
 number of electron     792.0000000 magnetization
 keeping initial charge density in first step


--------------------------------------------------------------------------------------------------------


 Maximum index for non-local projection operator         1743
 Maximum index for augmentation-charges         1189 (set IRDMAX)


--------------------------------------------------------------------------------------------------------


 First call to EWALD:  gamma=   0.165
 Maximum number of real-space cells 3x 3x 3
 Maximum number of reciprocal cells 3x 3x 3

    FEWALD:  cpu time      0.2174: real time      0.2188


--------------------------------------- Iteration      1(   1)  ---------------------------------------


    POTLOK:  cpu time      0.1816: real time      0.1852
    SETDIJ:  cpu time      0.0099: real time      0.0200
     EDDAV:  cpu time     12.4024: real time     12.7097
       DOS:  cpu time      0.0033: real time      0.0039
    --------------------------------------------
      LOOP:  cpu time     12.5972: real time     12.9190

 eigenvalue-minimisations  :  3824
 total energy-change (2. order) : 0.1156054E+05  (-0.3305682E+05)
 number of electron     792.0000000 magnetization
 augmentation part      792.0000000 magnetization

 Free energy of the ion-electron system (eV)
  ---------------------------------------------------
  alpha Z        PSCENC =      3563.47650690
  Ewald energy   TEWEN  =    -48582.67993660
  -Hartree energ DENC   =    -18845.50372136
  -exchange      EXHF   =         0.00000000
  -V(xc)+E(xc)   XCENC  =      3286.91405818
  PAW double counting   =     54431.09303398   -54537.79254336
  entropy T*S    EENTRO =        -0.15493158
  eigenvalues    EBANDS =      3588.78830630
  atomic energy  EATOM  =     68656.39924158
  Solvation  Ediel_sol  =         0.00000000
  ---------------------------------------------------
  free energy    TOTEN  =     11560.54001403 eV

  energy without entropy =    11560.69494561  energy(sigma->0) =    11560.61747982


--------------------------------------------------------------------------------------------------------




--------------------------------------- Iteration      1(   2)  ---------------------------------------


     EDDAV:  cpu time     13.1357: real time     13.4446
       DOS:  cpu time      0.0008: real time      0.0008
    --------------------------------------------
      LOOP:  cpu time     13.1365: real time     13.4454

 eigenvalue-minimisations  :  3808
 total energy-change (2. order) :-0.9987654E+04  (-0.9557229E+04)
 number of electron     792.0000000 magnetization
 augmentation part      792.0000000 magnetization

 Free energy of the ion-electron system (eV)
  ---------------------------------------------------
  alpha Z        PSCENC =      3563.47650690
  Ewald energy   TEWEN  =    -48582.67993660
  -Hartree energ DENC   =    -18845.50372136
  -exchange      EXHF   =         0.00000000
  -V(xc)+E(xc)   XCENC  =      3286.91405818
  PAW double counting   =     54431.09303398   -54537.79254336
  entropy T*S    EENTRO =        -0.27829876
  eigenvalues    EBANDS =     -6398.74238244
  atomic energy  EATOM  =     68656.39924158
  Solvation  Ediel_sol  =         0.00000000
  ---------------------------------------------------
  free energy    TOTEN  =      1572.88595811 eV

  energy without entropy =     1573.16425688  energy(sigma->0) =     1573.02510749


--------------------------------------------------------------------------------------------------------




--------------------------------------- Iteration      1(   3)  ---------------------------------------


     EDDAV:  cpu time     16.2303: real time     16.3463
       DOS:  cpu time      0.0009: real time      0.0009
    --------------------------------------------
      LOOP:  cpu time     16.2312: real time     16.3472

 eigenvalue-minimisations  :  4432
 total energy-change (2. order) :-0.2644552E+04  (-0.2573234E+04)
 number of electron     792.0000000 magnetization
 augmentation part      792.0000000 magnetization

 Free energy of the ion-electron system (eV)
  ---------------------------------------------------
  alpha Z        PSCENC =      3563.47650690
  Ewald energy   TEWEN  =    -48582.67993660
  -Hartree energ DENC   =    -18845.50372136
  -exchange      EXHF   =         0.00000000
  -V(xc)+E(xc)   XCENC  =      3286.91405818
  PAW double counting   =     54431.09303398   -54537.79254336
  entropy T*S    EENTRO =        -0.00000000
  eigenvalues    EBANDS =     -9043.57303996
  atomic energy  EATOM  =     68656.39924158
  Solvation  Ediel_sol  =         0.00000000
  ---------------------------------------------------
  free energy    TOTEN  =     -1071.66640064 eV

  energy without entropy =    -1071.66640064  energy(sigma->0) =    -1071.66640064


--------------------------------------------------------------------------------------------------------




--------------------------------------- Iteration      1(   4)  ---------------------------------------


     EDDAV:  cpu time     18.4167: real time     18.5471
       DOS:  cpu time      0.0009: real time      0.0009
    --------------------------------------------
      LOOP:  cpu time     18.4176: real time     18.5480

 eigenvalue-minimisations  :  5072
 total energy-change (2. order) :-0.2014359E+03  (-0.2003650E+03)
 number of electron     792.0000000 magnetization
 augmentation part      792.0000000 magnetization

 Free energy of the ion-electron system (eV)
  ---------------------------------------------------
  alpha Z        PSCENC =      3563.47650690
  Ewald energy   TEWEN  =    -48582.67993660
  -Hartree energ DENC   =    -18845.50372136
  -exchange      EXHF   =         0.00000000
  -V(xc)+E(xc)   XCENC  =      3286.91405818
  PAW double counting   =     54431.09303398   -54537.79254336
  entropy T*S    EENTRO =        -0.00000000
  eigenvalues    EBANDS =     -9245.00897576
  atomic energy  EATOM  =     68656.39924158
  Solvation  Ediel_sol  =         0.00000000
  ---------------------------------------------------
  free energy    TOTEN  =     -1273.10233644 eV

  energy without entropy =    -1273.10233644  energy(sigma->0) =    -1273.10233644


--------------------------------------------------------------------------------------------------------




--------------------------------------- Iteration      1(   5)  ---------------------------------------


     EDDAV:  cpu time     17.9612: real time     18.0898
       DOS:  cpu time      0.0008: real time      0.0008
    CHARGE:  cpu time      0.2444: real time      0.2475
    MIXING:  cpu time      0.0126: real time      0.0128
    --------------------------------------------
      LOOP:  cpu time     18.2192: real time     18.3510

 eigenvalue-minimisations  :  4992
 total energy-change (2. order) :-0.5121583E+01  (-0.5111815E+01)
 number of electron     792.0003053 magnetization
 augmentation part      202.2479833 magnetization

 Broyden mixing:
  rms(total) = 0.17276E+02    rms(broyden)= 0.17274E+02
  rms(prec ) = 0.19209E+02
  weight for this iteration     100.00

 Free energy of the ion-electron system (eV)
  ---------------------------------------------------
  alpha Z        PSCENC =      3563.47650690
  Ewald energy   TEWEN  =    -48582.67993660
  -Hartree energ DENC   =    -18845.50372136
  -exchange      EXHF   =         0.00000000
  -V(xc)+E(xc)   XCENC  =      3286.91405818
  PAW double counting   =     54431.09303398   -54537.79254336
  entropy T*S    EENTRO =        -0.00000000
  eigenvalues    EBANDS =     -9250.13055891
  atomic energy  EATOM  =     68656.39924158
  Solvation  Ediel_sol  =         0.00000000
  ---------------------------------------------------
  free energy    TOTEN  =     -1278.22391959 eV

  energy without entropy =    -1278.22391959  energy(sigma->0) =    -1278.22391959


--------------------------------------------------------------------------------------------------------




--------------------------------------- Iteration      1(   6)  ---------------------------------------


    POTLOK:  cpu time      0.2251: real time      0.2270
    SETDIJ:  cpu time      0.0086: real time      0.0087
     EDDAV:  cpu time     17.8693: real time     17.9917
       DOS:  cpu time      0.0007: real time      0.0007
    CHARGE:  cpu time      0.2414: real time      0.2439
    MIXING:  cpu time      0.0129: real time      0.0160
    --------------------------------------------
      LOOP:  cpu time     18.3580: real time     18.4879

 eigenvalue-minimisations  :  4992
 total energy-change (2. order) : 0.3023835E+03  (-0.1974639E+03)
 number of electron     792.0002455 magnetization
 augmentation part      214.1322496 magnetization

 Broyden mixing:
  rms(total) = 0.53251E+01    rms(broyden)= 0.53201E+01
  rms(prec ) = 0.58506E+01
  weight for this iteration     100.00

 eigenvalues of (default mixing * dielectric matrix)
  average eigenvalue GAMMA=   0.9667
  0.9667

 Free energy of the ion-electron system (eV)
  ---------------------------------------------------
  alpha Z        PSCENC =      3563.47650690
  Ewald energy   TEWEN  =    -48582.67993660
  -Hartree energ DENC   =    -19070.63007469
  -exchange      EXHF   =         0.00000000
  -V(xc)+E(xc)   XCENC  =      3337.95087664
  PAW double counting   =     68289.62765730   -68521.92097258
  entropy T*S    EENTRO =        -0.00000000
  eigenvalues    EBANDS =     -8648.06376593
  atomic energy  EATOM  =     68656.39924158
  Solvation  Ediel_sol  =         0.00000000
  ---------------------------------------------------
  free energy    TOTEN  =      -975.84046739 eV

  energy without entropy =     -975.84046739  energy(sigma->0) =     -975.84046739


--------------------------------------------------------------------------------------------------------




--------------------------------------- Iteration      1(   7)  ---------------------------------------


    POTLOK:  cpu time      0.2130: real time      0.2146
    SETDIJ:  cpu time      0.0110: real time      0.0110
     EDDAV:  cpu time     19.0126: real time     19.1457
       DOS:  cpu time      0.0010: real time      0.0010
    CHARGE:  cpu time      0.2435: real time      0.2463
    MIXING:  cpu time      0.0119: real time      0.0123
    --------------------------------------------
      LOOP:  cpu time     19.4929: real time     19.6310

 eigenvalue-minimisations  :  5336
 total energy-change (2. order) : 0.4101766E+01  (-0.2874543E+02)
 number of electron     792.0002649 magnetization
 augmentation part      207.3385279 magnetization

 Broyden mixing:
  rms(total) = 0.46092E+01    rms(broyden)= 0.46089E+01
  rms(prec ) = 0.48022E+01
  weight for this iteration     100.00

 eigenvalues of (default mixing * dielectric matrix)
  average eigenvalue GAMMA=   1.8402
  0.7377  2.9427

 Free energy of the ion-electron system (eV)
  ---------------------------------------------------
  alpha Z        PSCENC =      3563.47650690
  Ewald energy   TEWEN  =    -48582.67993660
  -Hartree energ DENC   =    -18914.75490415
  -exchange      EXHF   =         0.00000000
  -V(xc)+E(xc)   XCENC  =      3318.79190931
  PAW double counting   =     75326.06539401   -75569.35749715
  entropy T*S    EENTRO =        -0.00000000
  eigenvalues    EBANDS =     -8769.67941481
  atomic energy  EATOM  =     68656.39924158
  Solvation  Ediel_sol  =         0.00000000
  ---------------------------------------------------
  free energy    TOTEN  =      -971.73870091 eV

  energy without entropy =     -971.73870091  energy(sigma->0) =     -971.73870091


--------------------------------------------------------------------------------------------------------




--------------------------------------- Iteration      1(   8)  ---------------------------------------


    POTLOK:  cpu time      0.2144: real time      0.2165
    SETDIJ:  cpu time      0.0085: real time      0.0086
     EDDAV:  cpu time     18.0640: real time     18.1882
       DOS:  cpu time      0.0006: real time      0.0006
    CHARGE:  cpu time      0.2407: real time      0.2432
    MIXING:  cpu time      0.0128: real time      0.0129
    --------------------------------------------
      LOOP:  cpu time     18.5410: real time     18.6699

 eigenvalue-minimisations  :  5008
 total energy-change (2. order) : 0.5634741E-02  (-0.1097263E+02)
 number of electron     792.0002583 magnetization
 augmentation part      215.5497239 magnetization

 Broyden mixing:
  rms(total) = 0.33458E+01    rms(broyden)= 0.33456E+01
  rms(prec ) = 0.36436E+01
  weight for this iteration     100.00

 eigenvalues of (default mixing * dielectric matrix)
  average eigenvalue GAMMA=   1.2325
  2.1657  0.9318  0.6001

 Free energy of the ion-electron system (eV)
  ---------------------------------------------------
  alpha Z        PSCENC =      3563.47650690
  Ewald energy   TEWEN  =    -48582.67993660
  -Hartree energ DENC   =    -18538.99777459
  -exchange      EXHF   =         0.00000000
  -V(xc)+E(xc)   XCENC  =      3304.07440190
  PAW double counting   =     93926.57434166   -94241.85740294
  entropy T*S    EENTRO =        -0.00000000
  eigenvalues    EBANDS =     -9058.72244408
  atomic energy  EATOM  =     68656.39924158
  Solvation  Ediel_sol  =         0.00000000
  ---------------------------------------------------
  free energy    TOTEN  =      -971.73306617 eV

  energy without entropy =     -971.73306617  energy(sigma->0) =     -971.73306617


--------------------------------------------------------------------------------------------------------




--------------------------------------- Iteration      1(   9)  ---------------------------------------


    POTLOK:  cpu time      0.2095: real time      0.2115
    SETDIJ:  cpu time      0.0149: real time      0.0149
     EDDAV:  cpu time     18.3832: real time     18.5079
       DOS:  cpu time      0.0010: real time      0.0010
    CHARGE:  cpu time      0.2384: real time      0.2410
    MIXING:  cpu time      0.0129: real time      0.0131
    --------------------------------------------
      LOOP:  cpu time     18.8599: real time     18.9894

 eigenvalue-minimisations  :  5112
 total energy-change (2. order) : 0.5487881E+01  (-0.3429865E+01)
 number of electron     792.0002631 magnetization
 augmentation part      211.4774846 magnetization

 Broyden mixing:
  rms(total) = 0.26440E+00    rms(broyden)= 0.26368E+00
  rms(prec ) = 0.29121E+00
  weight for this iteration     100.00

 eigenvalues of (default mixing * dielectric matrix)
  average eigenvalue GAMMA=   1.1242
  2.1752  0.8381  0.8381  0.6452

 Free energy of the ion-electron system (eV)
  ---------------------------------------------------
  alpha Z        PSCENC =      3563.47650690
  Ewald energy   TEWEN  =    -48582.67993660
  -Hartree energ DENC   =    -18682.95096499
  -exchange      EXHF   =         0.00000000
  -V(xc)+E(xc)   XCENC  =      3308.94592386
  PAW double counting   =     88684.08899351   -88980.30908786
  entropy T*S    EENTRO =        -0.00000000
  eigenvalues    EBANDS =     -8933.21586188
  atomic energy  EATOM  =     68656.39924158
  Solvation  Ediel_sol  =         0.00000000
  ---------------------------------------------------
  free energy    TOTEN  =      -966.24518549 eV

  energy without entropy =     -966.24518549  energy(sigma->0) =     -966.24518549


--------------------------------------------------------------------------------------------------------




--------------------------------------- Iteration      1(  10)  ---------------------------------------


    POTLOK:  cpu time      0.2132: real time      0.2153
    SETDIJ:  cpu time      0.0095: real time      0.0096
     EDDAV:  cpu time     18.8190: real time     18.9478
       DOS:  cpu time      0.0009: real time      0.0009
    CHARGE:  cpu time      0.2450: real time      0.2475
    MIXING:  cpu time      0.0136: real time      0.0137
    --------------------------------------------
      LOOP:  cpu time     19.3013: real time     19.4349

 eigenvalue-minimisations  :  5224
 total energy-change (2. order) :-0.3546319E-01  (-0.8249809E-01)
 number of electron     792.0002625 magnetization
 augmentation part      211.5164039 magnetization

 Broyden mixing:
  rms(total) = 0.20961E+00    rms(broyden)= 0.20956E+00
  rms(prec ) = 0.22645E+00
  weight for this iteration     100.00

 eigenvalues of (default mixing * dielectric matrix)
  average eigenvalue GAMMA=   1.2857
  2.4570  1.7298  1.0625  0.6526  0.5263

 Free energy of the ion-electron system (eV)
  ---------------------------------------------------
  alpha Z        PSCENC =      3563.47650690
  Ewald energy   TEWEN  =    -48582.67993660
  -Hartree energ DENC   =    -18705.08274031
  -exchange      EXHF   =         0.00000000
  -V(xc)+E(xc)   XCENC  =      3310.54625262
  PAW double counting   =     88878.61100808   -89177.13603780
  entropy T*S    EENTRO =        -0.00000000
  eigenvalues    EBANDS =     -8910.41494315
  atomic energy  EATOM  =     68656.39924158
  Solvation  Ediel_sol  =         0.00000000
  ---------------------------------------------------
  free energy    TOTEN  =      -966.28064868 eV

  energy without entropy =     -966.28064868  energy(sigma->0) =     -966.28064868


--------------------------------------------------------------------------------------------------------




--------------------------------------- Iteration      1(  11)  ---------------------------------------


    POTLOK:  cpu time      0.2075: real time      0.2095
    SETDIJ:  cpu time      0.0145: real time      0.0146
     EDDAV:  cpu time     16.4395: real time     16.5556
       DOS:  cpu time      0.0006: real time      0.0006
    CHARGE:  cpu time      0.2342: real time      0.2363
    MIXING:  cpu time      0.0145: real time      0.0146
    --------------------------------------------
      LOOP:  cpu time     16.9108: real time     17.0312

 eigenvalue-minimisations  :  4480
 total energy-change (2. order) :-0.5999400E-01  (-0.4510392E-01)
 number of electron     792.0002616 magnetization
 augmentation part      211.4939398 magnetization

 Broyden mixing:
  rms(total) = 0.21360E+00    rms(broyden)= 0.21357E+00
  rms(prec ) = 0.25760E+00
  weight for this iteration     100.00

 eigenvalues of (default mixing * dielectric matrix)
  average eigenvalue GAMMA=   1.2641
  2.5286  1.8430  1.0154  1.0154  0.5911  0.5911

 Free energy of the ion-electron system (eV)
  ---------------------------------------------------
  alpha Z        PSCENC =      3563.47650690
  Ewald energy   TEWEN  =    -48582.67993660
  -Hartree energ DENC   =    -18745.72996433
  -exchange      EXHF   =         0.00000000
  -V(xc)+E(xc)   XCENC  =      3313.37667534
  PAW double counting   =     89291.28818186   -89593.87331940
  entropy T*S    EENTRO =        -0.00000000
  eigenvalues    EBANDS =     -8868.59802803
  atomic energy  EATOM  =     68656.39924158
  Solvation  Ediel_sol  =         0.00000000
  ---------------------------------------------------
  free energy    TOTEN  =      -966.34064268 eV

  energy without entropy =     -966.34064268  energy(sigma->0) =     -966.34064268


--------------------------------------------------------------------------------------------------------




--------------------------------------- Iteration      1(  12)  ---------------------------------------


    POTLOK:  cpu time      0.2091: real time      0.2105
    SETDIJ:  cpu time      0.0168: real time      0.0170
     EDDAV:  cpu time     18.8108: real time     18.9369
       DOS:  cpu time      0.0006: real time      0.0006
    CHARGE:  cpu time      0.2366: real time      0.2378
    MIXING:  cpu time      0.0142: real time      0.0143
    --------------------------------------------
      LOOP:  cpu time     19.2880: real time     19.4173

 eigenvalue-minimisations  :  5264
 total energy-change (2. order) : 0.5352330E-01  (-0.4938356E-01)
 number of electron     792.0002625 magnetization
 augmentation part      211.1887999 magnetization

 Broyden mixing:
  rms(total) = 0.56255E-01    rms(broyden)= 0.56142E-01
  rms(prec ) = 0.65323E-01
  weight for this iteration     100.00

 eigenvalues of (default mixing * dielectric matrix)
  average eigenvalue GAMMA=   1.2296
  2.5854  1.5341  1.5341  1.0048  0.7859  0.5815  0.5815

 Free energy of the ion-electron system (eV)
  ---------------------------------------------------
  alpha Z        PSCENC =      3563.47650690
  Ewald energy   TEWEN  =    -48582.67993660
  -Hartree energ DENC   =    -18742.73281079
  -exchange      EXHF   =         0.00000000
  -V(xc)+E(xc)   XCENC  =      3312.73446283
  PAW double counting   =     89326.50795830   -89628.30028396
  entropy T*S    EENTRO =        -0.00000000
  eigenvalues    EBANDS =     -8871.69225764
  atomic energy  EATOM  =     68656.39924158
  Solvation  Ediel_sol  =         0.00000000
  ---------------------------------------------------
  free energy    TOTEN  =      -966.28711938 eV

  energy without entropy =     -966.28711938  energy(sigma->0) =     -966.28711938


--------------------------------------------------------------------------------------------------------




--------------------------------------- Iteration      1(  13)  ---------------------------------------


    POTLOK:  cpu time      0.2124: real time      0.2145
    SETDIJ:  cpu time      0.0090: real time      0.0090
     EDDAV:  cpu time     18.9129: real time     19.0475
       DOS:  cpu time      0.0006: real time      0.0006
    CHARGE:  cpu time      0.2353: real time      0.2365
    MIXING:  cpu time      0.0148: real time      0.0149
    --------------------------------------------
      LOOP:  cpu time     19.3850: real time     19.5232

 eigenvalue-minimisations  :  5304
 total energy-change (2. order) : 0.9911672E-03  (-0.1981151E-02)
 number of electron     792.0002624 magnetization
 augmentation part      211.2396677 magnetization

 Broyden mixing:
  rms(total) = 0.22201E-01    rms(broyden)= 0.22191E-01
  rms(prec ) = 0.26540E-01
  weight for this iteration     100.00

 eigenvalues of (default mixing * dielectric matrix)
  average eigenvalue GAMMA=   1.1895
  2.6030  1.7131  1.7131  0.9431  0.6917  0.6917  0.5361  0.6239

 Free energy of the ion-electron system (eV)
  ---------------------------------------------------
  alpha Z        PSCENC =      3563.47650690
  Ewald energy   TEWEN  =    -48582.67993660
  -Hartree energ DENC   =    -18742.55756960
  -exchange      EXHF   =         0.00000000
  -V(xc)+E(xc)   XCENC  =      3312.76880929
  PAW double counting   =     89366.22380073   -89668.02665403
  entropy T*S    EENTRO =        -0.00000000
  eigenvalues    EBANDS =     -8871.89032646
  atomic energy  EATOM  =     68656.39924158
  Solvation  Ediel_sol  =         0.00000000
  ---------------------------------------------------
  free energy    TOTEN  =      -966.28612821 eV

  energy without entropy =     -966.28612821  energy(sigma->0) =     -966.28612821


--------------------------------------------------------------------------------------------------------




--------------------------------------- Iteration      1(  14)  ---------------------------------------


    POTLOK:  cpu time      0.2118: real time      0.2139
    SETDIJ:  cpu time      0.0081: real time      0.0082
     EDDAV:  cpu time     19.0208: real time     19.1510
       DOS:  cpu time      0.0009: real time      0.0009
    CHARGE:  cpu time      0.2333: real time      0.2345
    MIXING:  cpu time      0.0153: real time      0.0154
    --------------------------------------------
      LOOP:  cpu time     19.4903: real time     19.6239

 eigenvalue-minimisations  :  5344
 total energy-change (2. order) : 0.2424503E-03  (-0.1497779E-03)
 number of electron     792.0002623 magnetization
 augmentation part      211.2481375 magnetization

 Broyden mixing:
  rms(total) = 0.12231E-01    rms(broyden)= 0.12229E-01
  rms(prec ) = 0.14347E-01
  weight for this iteration     100.00

 eigenvalues of (default mixing * dielectric matrix)
  average eigenvalue GAMMA=   1.2215
  2.5676  1.8277  1.8277  1.0475  0.9638  0.9638  0.5719  0.5719  0.6516

 Free energy of the ion-electron system (eV)
  ---------------------------------------------------
  alpha Z        PSCENC =      3563.47650690
  Ewald energy   TEWEN  =    -48582.67993660
  -Hartree energ DENC   =    -18743.54668434
  -exchange      EXHF   =         0.00000000
  -V(xc)+E(xc)   XCENC  =      3312.83617922
  PAW double counting   =     89361.27718900   -89663.00217527
  entropy T*S    EENTRO =        -0.00000000
  eigenvalues    EBANDS =     -8871.04620624
  atomic energy  EATOM  =     68656.39924158
  Solvation  Ediel_sol  =         0.00000000
  ---------------------------------------------------
  free energy    TOTEN  =      -966.28588576 eV

  energy without entropy =     -966.28588576  energy(sigma->0) =     -966.28588576


--------------------------------------------------------------------------------------------------------




--------------------------------------- Iteration      1(  15)  ---------------------------------------


    POTLOK:  cpu time      0.2105: real time      0.2126
    SETDIJ:  cpu time      0.0088: real time      0.0088
     EDDAV:  cpu time     18.9269: real time     19.0542
       DOS:  cpu time      0.0011: real time      0.0011
    CHARGE:  cpu time      0.2360: real time      0.2372
    MIXING:  cpu time      0.0156: real time      0.0157
    --------------------------------------------
      LOOP:  cpu time     19.3989: real time     19.5297

 eigenvalue-minimisations  :  5312
 total energy-change (2. order) :-0.1398736E-03  (-0.9462550E-04)
 number of electron     792.0002623 magnetization
 augmentation part      211.2391090 magnetization

 Broyden mixing:
  rms(total) = 0.10970E-01    rms(broyden)= 0.10968E-01
  rms(prec ) = 0.13230E-01
  weight for this iteration     100.00

 eigenvalues of (default mixing * dielectric matrix)
  average eigenvalue GAMMA=   1.2296
  2.6863  2.1582  2.1582  0.8974  0.8974  0.8925  0.8925  0.5857  0.5857  0.5419

 Free energy of the ion-electron system (eV)
  ---------------------------------------------------
  alpha Z        PSCENC =      3563.47650690
  Ewald energy   TEWEN  =    -48582.67993660
  -Hartree energ DENC   =    -18744.66856458
  -exchange      EXHF   =         0.00000000
  -V(xc)+E(xc)   XCENC  =      3312.88599145
  PAW double counting   =     89340.78234637   -89642.32236373
  entropy T*S    EENTRO =        -0.00000000
  eigenvalues    EBANDS =     -8870.15924701
  atomic energy  EATOM  =     68656.39924158
  Solvation  Ediel_sol  =         0.00000000
  ---------------------------------------------------
  free energy    TOTEN  =      -966.28602563 eV

  energy without entropy =     -966.28602563  energy(sigma->0) =     -966.28602563


--------------------------------------------------------------------------------------------------------




--------------------------------------- Iteration      1(  16)  ---------------------------------------


    POTLOK:  cpu time      0.2079: real time      0.2101
    SETDIJ:  cpu time      0.0131: real time      0.0137
     EDDAV:  cpu time     18.8105: real time     18.9380
       DOS:  cpu time      0.0043: real time      0.0043
    CHARGE:  cpu time      0.2407: real time      0.2420
    MIXING:  cpu time      0.0164: real time      0.0166
    --------------------------------------------
      LOOP:  cpu time     19.2930: real time     19.4247

 eigenvalue-minimisations  :  5264
 total energy-change (2. order) : 0.6020041E-04  (-0.1498379E-03)
 number of electron     792.0002623 magnetization
 augmentation part      211.2556961 magnetization

 Broyden mixing:
  rms(total) = 0.51556E-02    rms(broyden)= 0.51514E-02
  rms(prec ) = 0.59075E-02
  weight for this iteration     100.00

 eigenvalues of (default mixing * dielectric matrix)
  average eigenvalue GAMMA=   1.2000
  2.7372  2.4309  1.9159  0.8095  0.8095  0.9539  0.9539  0.8507  0.5838  0.5838
  0.5711

 Free energy of the ion-electron system (eV)
  ---------------------------------------------------
  alpha Z        PSCENC =      3563.47650690
  Ewald energy   TEWEN  =    -48582.67993660
  -Hartree energ DENC   =    -18745.44222249
  -exchange      EXHF   =         0.00000000
  -V(xc)+E(xc)   XCENC  =      3312.94439448
  PAW double counting   =     89339.43620924   -89640.91822656
  entropy T*S    EENTRO =        -0.00000000
  eigenvalues    EBANDS =     -8869.50193199
  atomic energy  EATOM  =     68656.39924158
  Solvation  Ediel_sol  =         0.00000000
  ---------------------------------------------------
  free energy    TOTEN  =      -966.28596543 eV

  energy without entropy =     -966.28596543  energy(sigma->0) =     -966.28596543


--------------------------------------------------------------------------------------------------------




--------------------------------------- Iteration      1(  17)  ---------------------------------------


    POTLOK:  cpu time      0.2117: real time      0.2138
    SETDIJ:  cpu time      0.0098: real time      0.0098
     EDDAV:  cpu time     19.0485: real time     19.1777
       DOS:  cpu time      0.0043: real time      0.0043
    CHARGE:  cpu time      0.2363: real time      0.2375
    MIXING:  cpu time      0.0163: real time      0.0164
    --------------------------------------------
      LOOP:  cpu time     19.5269: real time     19.6596

 eigenvalue-minimisations  :  5328
 total energy-change (2. order) : 0.9751690E-05  (-0.1455698E-04)
 number of electron     792.0002623 magnetization
 augmentation part      211.2523408 magnetization

 Broyden mixing:
  rms(total) = 0.23374E-02    rms(broyden)= 0.23356E-02
  rms(prec ) = 0.28202E-02
  weight for this iteration     100.00

 eigenvalues of (default mixing * dielectric matrix)
  average eigenvalue GAMMA=   1.1736
  2.8433  2.4447  1.8589  1.0377  1.0377  0.8966  0.8966  0.6755  0.6755  0.6100
  0.5775  0.5298

 Free energy of the ion-electron system (eV)
  ---------------------------------------------------
  alpha Z        PSCENC =      3563.47650690
  Ewald energy   TEWEN  =    -48582.67993660
  -Hartree energ DENC   =    -18745.75138486
  -exchange      EXHF   =         0.00000000
  -V(xc)+E(xc)   XCENC  =      3312.95877764
  PAW double counting   =     89334.87249993   -89636.33941496
  entropy T*S    EENTRO =        -0.00000000
  eigenvalues    EBANDS =     -8869.22224531
  atomic energy  EATOM  =     68656.39924158
  Solvation  Ediel_sol  =         0.00000000
  ---------------------------------------------------
  free energy    TOTEN  =      -966.28595568 eV

  energy without entropy =     -966.28595568  energy(sigma->0) =     -966.28595568


--------------------------------------------------------------------------------------------------------




--------------------------------------- Iteration      1(  18)  ---------------------------------------


    POTLOK:  cpu time      0.2171: real time      0.2192
    SETDIJ:  cpu time      0.0083: real time      0.0083
     EDDAV:  cpu time     18.5697: real time     18.6972
       DOS:  cpu time      0.0042: real time      0.0042
    CHARGE:  cpu time      0.2329: real time      0.2342
    MIXING:  cpu time      0.0168: real time      0.0169
    --------------------------------------------
      LOOP:  cpu time     19.0490: real time     19.1801

 eigenvalue-minimisations  :  5176
 total energy-change (2. order) :-0.1311753E-05  (-0.2421876E-05)
 number of electron     792.0002623 magnetization
 augmentation part      211.2523189 magnetization

 Broyden mixing:
  rms(total) = 0.21614E-02    rms(broyden)= 0.21612E-02
  rms(prec ) = 0.26162E-02
  weight for this iteration     100.00

 eigenvalues of (default mixing * dielectric matrix)
  average eigenvalue GAMMA=   1.1786
  2.9387  2.4300  1.8327  1.1743  1.1743  0.9345  0.9345  0.7911  0.7911  0.6618
  0.5700  0.5700  0.5192

 Free energy of the ion-electron system (eV)
  ---------------------------------------------------
  alpha Z        PSCENC =      3563.47650690
  Ewald energy   TEWEN  =    -48582.67993660
  -Hartree energ DENC   =    -18745.83251623
  -exchange      EXHF   =         0.00000000
  -V(xc)+E(xc)   XCENC  =      3312.96213140
  PAW double counting   =     89334.31299568   -89635.78014164
[...]
      7.58456      3.79228      1.99678    -0.00686  0.04777 -2.88634 ( -0.63493  6.00000)
      7.58456      7.58456      1.99678    -0.00687 -0.04777 -2.88635 ( -0.63493  6.00000)
      0.00000      1.89614      0.40437    -0.00186  0.00035 -2.89431 ( -0.63483  6.00000)
      0.00000      5.68842      0.40437    -0.00337 -0.00002 -2.89203 ( -0.63480  6.00000)
      0.00000      9.48070      0.40437    -0.00186 -0.00040 -2.89430 ( -0.63483  6.00000)
      3.79228      1.89614      0.40437     0.00022 -0.01125 -2.88914 ( -0.63487  6.00000)
      3.79228      5.68842      0.40437    -0.00219 -0.00002 -2.91713 ( -0.63502  6.00000)
      3.79228      9.48070      0.40437     0.00023  0.01126 -2.88916 ( -0.63486  6.00000)
      7.58456      1.89614      0.40437     0.00156  0.01277 -2.89878 ( -0.63482  6.00000)
      7.58456      5.68842      0.40437     0.00087 -0.00001 -2.83794 ( -0.63448  6.00000)
      7.58456      9.48070      0.40437     0.00157 -0.01280 -2.89878 ( -0.63481  6.00000)
      1.89614      1.89614      2.80551    -0.00546  0.00028 -2.89379 ( -0.63483  6.00000)
      1.89614      5.68842      2.80551    -0.04015  0.00003 -2.81518 ( -0.63483  6.00000)
      1.89614      9.48070      2.80551    -0.00546 -0.00030 -2.89378 ( -0.63483  6.00000)
      5.68842      1.89614      2.80551     0.00681  0.00002 -2.89633 ( -0.63482  6.00000)
      5.68842      5.68842      2.80551     0.03784  0.00000 -2.84445 ( -0.63380  6.00000)
      5.68842      9.48070      2.80551     0.00681 -0.00002 -2.89635 ( -0.63482  6.00000)
      9.48070      1.89614      2.80551    -0.00089  0.00108 -2.89372 ( -0.63486  6.00000)
      9.48070      5.68842      2.80551    -0.04962  0.00000 -2.95432 ( -0.63470  6.00000)
      9.48070      9.48070      2.80551    -0.00091 -0.00109 -2.89372 ( -0.63486  6.00000)
 -----------------------------------------------------------------------------------------
    total drift (improves with k-points):  -0.00020 -0.00011 -0.07328




--------------------------------------------------------------------------------------------------------




 MACROSCOPIC STATIC DIELECTRIC TENSOR (including local field effects in DFT)
 ------------------------------------------------------
           6.942519     0.000005    -0.043901
           0.000002     6.957265     0.000004
          -0.043904     0.000005     6.369092
 ------------------------------------------------------



--------------------------------------------------------------------------------------------------------




--------------------------------------------------------------------------------------------------------




 MACROSCOPIC STATIC DIELECTRIC TENSOR (including local field effects in DFT)
 ------------------------------------------------------
           6.942519     0.000005    -0.043901
           0.000002     6.957265     0.000004
          -0.043904     0.000005     6.369092
 ------------------------------------------------------


 PIEZOELECTRIC TENSOR (including local field effects)  for field in x, y, z        (e  Angst)
          XX          YY          ZZ          XY          YZ          ZX
  --------------------------------------------------------------------------------
  x     0.08280     1.04402     1.73178    -0.00002    -0.00006    -0.26173
  y     0.00090    -0.00128     0.00045     0.86933     0.09248    -0.00007
  z    -0.18683    -0.19214     0.07114    -0.00002    -0.00007    -0.01754

 PIEZOELECTRIC TENSOR (including local field effects)  for field in x, y, z        (C/m^2)
          XX          YY          ZZ          XY          YZ          ZX
  --------------------------------------------------------------------------------
  x     0.00107     0.01346     0.02232    -0.00000    -0.00000    -0.00337
  y     0.00001    -0.00002     0.00001     0.01120     0.00119    -0.00000
  z    -0.00241    -0.00248     0.00092    -0.00000    -0.00000    -0.00023

 BORN EFFECTIVE CHARGES (including local field effects) (in |e|, cummulative output)
 ---------------------------------------------------------------------------------
 ion    1
    1     6.64891     0.00339     0.02740
    2    -0.00458     6.63544    -0.00607
    3    -0.00505    -0.00685     5.77082
 ion    2
    1     6.44227     0.00006     0.09943
    2     0.00003     6.59242    -0.00001
    3    -0.54810    -0.00003     5.73821
 ion    3
    1     6.64892    -0.00343     0.02735
    2     0.00460     6.63543     0.00607
    3    -0.00509     0.00687     5.77085
 ion    4
    1     6.66907     0.05876     0.00755
    2    -0.00207     6.62730    -0.00409
    3     0.00778     0.02275     5.78846
 ion    5
    1     6.34545    -0.00005    -0.62952
    2     0.00002     6.40985    -0.00001
    3    -0.66786     0.00000     5.64126
 ion    6
    1     6.66898    -0.05873     0.00758
    2     0.00215     6.62730     0.00411
    3     0.00776    -0.02273     5.78845
 ion    7
    1     6.64918     0.03975     0.03746
    2     0.00472     6.67809     0.00682
    3    -0.01229    -0.01025     5.80180
 ion    8
    1     6.42980     0.00001     0.03796
    2     0.00004     6.70707    -0.00001
    3    -0.52840     0.00001     5.83037
 ion    9
    1     6.64921    -0.03977     0.03745
    2    -0.00467     6.67809    -0.00684
    3    -0.01227     0.01027     5.80182
 ion   10
    1     6.65700    -0.00003    -0.01730
    2    -0.00006     6.66250    -0.00003
    3     0.00305    -0.00001     5.78749
 ion   11
    1     6.64801     0.00591    -0.02733
    2    -0.00079     6.70926     0.05824
    3     0.01393    -0.00440     5.83688
 ion   12
    1     6.64803    -0.00599    -0.02728
    2     0.00071     6.70922    -0.05829
    3     0.01395     0.00443     5.83689
 ion   13
    1     6.66099    -0.00005    -0.00342
    2    -0.00002     6.65426     0.00002
    3    -0.00109     0.00004     5.77987
 ion   14
    1     6.65923     0.07179    -0.05053
    2    -0.00174     6.68230     0.04072
    3    -0.00117     0.04066     5.76447
 ion   15
    1     6.65913    -0.07186    -0.05050
    2     0.00159     6.68234    -0.04072
    3    -0.00115    -0.04065     5.76444
 ion   16
    1     6.65573    -0.00001    -0.02618
    2    -0.00000     6.65505    -0.00001
    3    -0.00251     0.00004     5.78981
 ion   17
    1     6.64877     0.02027    -0.06035
    2    -0.00011     6.60720    -0.05905
    3    -0.01178     0.00102     5.74770
 ion   18
    1     6.64872    -0.02026    -0.06033
    2     0.00005     6.60717     0.05902
    3    -0.01180    -0.00104     5.74769
 ion   19
    1     6.65133    -0.00000     0.00888
    2     0.00004     6.65628     0.00000
    3    -0.00264     0.00002     5.78641
 ion   20
    1     6.64844    -0.00555     0.01751
    2     0.00013     6.65913     0.00175
    3    -0.01037    -0.00082     5.78459
 ion   21
    1     6.64842     0.00564     0.01750
    2    -0.00007     6.65912    -0.00171
    3    -0.01036     0.00085     5.78459
 ion   22
    1     6.66557     0.00004    -0.02707
    2     0.00004     6.66388     0.00001
    3     0.00322    -0.00001     5.78871
 ion   23
    1     6.67210    -0.05096    -0.08104
    2    -0.00006     6.70218    -0.02541
    3     0.00973     0.00102     5.80929
 ion   24
    1     6.67207     0.05096    -0.08100
    2     0.00012     6.70219     0.02550
    3     0.00976    -0.00104     5.80931
 ion   25
    1     6.66439     0.00003    -0.02524
    2     0.00002     6.65261     0.00002
    3    -0.00035     0.00004     5.78535
 ion   26
    1     6.66921    -0.03660    -0.07968
    2     0.00026     6.61003     0.03256
    3     0.00246    -0.00082     5.74666
 ion   27
    1     6.66923     0.03661    -0.07965
    2    -0.00021     6.61007    -0.03257
    3     0.00248     0.00084     5.74666
 ion   28
    1     6.64845    -0.00326    -0.02066
    2     0.00012     6.66168    -0.00076
    3     0.00069    -0.00120     5.78625
 ion   29
    1     6.61121     0.00002    -0.06700
    2    -0.00002     6.65583    -0.00000
    3     0.00512     0.00004     5.78639
 ion   30
    1     6.64838     0.00323    -0.02064
    2    -0.00014     6.66167     0.00076
    3     0.00071     0.00120     5.78625
 ion   31
    1     6.66905    -0.05896     0.03333
    2    -0.00142     6.64805     0.00588
    3     0.00137    -0.00622     5.78626
 ion   32
    1     6.69707    -0.00002    -0.51976
    2     0.00001     6.58857     0.00001
    3    -0.00560     0.00001     5.83323
 ion   33
    1     6.66905     0.05902     0.03334
    2     0.00141     6.64804    -0.00584
    3     0.00137     0.00622     5.78625
 ion   34
    1     6.66665    -0.03911     0.04069
    2     0.00133     6.67492    -0.01129
    3    -0.00209     0.00040     5.79587
 ion   35
    1     6.67146     0.00001    -0.35493
    2     0.00002     6.73483     0.00001
    3     0.00333     0.00000     5.61927
 ion   36
    1     6.66665     0.03916     0.04066
    2    -0.00133     6.67498     0.01128
    3    -0.00209    -0.00041     5.79586
 ion   37
    1    -5.52253     0.00390     0.01656
    2    -0.01311    -1.12317     0.00021
    3     0.01612     0.00062    -2.89281
 ion   38
    1    -5.43757    -0.00004     0.03746
    2    -0.00001    -1.11889    -0.00002
    3     0.33725    -0.00002    -2.88996
 ion   39
    1    -5.52251    -0.00393     0.01657
    2     0.01309    -1.12317    -0.00021
    3     0.01612    -0.00064    -2.89283
 ion   40
    1    -5.54256    -0.00146    -0.02969
    2     0.00581    -1.11277     0.00359
    3    -0.01359     0.00249    -2.89982
 ion   41
    1    -4.96186    -0.00003     0.52433
    2    -0.00004    -1.16439    -0.00004
    3     0.55046    -0.00003    -2.96135
 ion   42
    1    -5.54254     0.00144    -0.02969
    2    -0.00582    -1.11279    -0.00361
    3    -0.01356    -0.00250    -2.89983
 ion   43
    1    -5.53246    -0.00828    -0.03806
    2    -0.00423    -1.12514     0.00254
    3     0.00233    -0.00487    -2.89500
 ion   44
    1    -5.65288     0.00002     0.49248
    2    -0.00001    -1.02007    -0.00001
    3     0.53260    -0.00001    -2.73013
 ion   45
    1    -5.53240     0.00824    -0.03809
    2     0.00420    -1.12514    -0.00257
    3     0.00232     0.00487    -2.89500
 ion   46
    1    -1.12799    -0.00624     0.00344
    2     0.00157    -5.53560     0.00252
    3    -0.00015     0.02089    -2.88762
 ion   47
    1    -1.11404     0.00002     0.03029
    2    -0.00000    -5.61638     0.00004
    3     0.01662    -0.00000    -2.90152
 ion   48
    1    -1.12800     0.00626     0.00343
    2    -0.00152    -5.53560    -0.00249
    3    -0.00015    -0.02089    -2.88761
 ion   49
    1    -1.12579    -0.01037     0.00135
    2    -0.00411    -5.53543    -0.00145
    3     0.00432     0.00006    -2.89119
 ion   50
    1    -1.10991     0.00003     0.12660
    2     0.00005    -5.58303    -0.00002
    3     0.18262     0.00004    -2.78751
 ion   51
    1    -1.12576     0.01040     0.00139
    2     0.00411    -5.53548     0.00146
    3     0.00432    -0.00011    -2.89117
 ion   52
    1    -1.11571    -0.01592     0.00778
    2     0.00089    -5.53637    -0.00402
    3     0.00198    -0.02060    -2.90523
 ion   53
    1    -1.12199    -0.00000     0.05468
    2     0.00001    -5.45136     0.00001
    3     0.02005     0.00002    -2.89708
 ion   54
    1    -1.11569     0.01593     0.00774
    2    -0.00085    -5.53635     0.00405
    3     0.00197     0.02059    -2.90523
 ion   55
    1    -1.12761     0.00001     0.00119
    2    -0.00002    -5.53714     0.00001
    3    -0.00111    -0.00001    -2.88779
 ion   56
    1    -1.09865    -0.04419    -0.01076
    2     0.02119    -5.49238    -0.06376
    3     0.01773     0.04315    -2.92906
 ion   57
    1    -1.09866     0.04416    -0.01079
    2    -0.02120    -5.49239     0.06376
    3     0.01771    -0.04313    -2.92905
 ion   58
    1    -1.12455    -0.00005     0.00893
    2    -0.00002    -5.52865    -0.00003
    3     0.00541    -0.00001    -2.89078
 ion   59
    1    -1.10749    -0.16343     0.02343
    2    -0.25807    -5.41853    -0.05235
    3     0.03740    -0.04338    -2.88825
 ion   60
    1    -1.10747     0.16343     0.02341
    2     0.25808    -5.41858     0.05231
    3     0.03741     0.04337    -2.88825
 ion   61
    1    -1.11406     0.00003     0.00518
    2     0.00000    -5.53430     0.00001
    3     0.00046    -0.00002    -2.90298
 ion   62
    1    -1.11828    -0.11218     0.01723
    2     0.01743    -5.56669     0.06428
    3     0.01941    -0.01874    -2.86452
 ion   63
    1    -1.11825     0.11213     0.01724
    2    -0.01751    -5.56665    -0.06426
    3     0.01941     0.01874    -2.86453
 ion   64
    1    -5.53050    -0.00001    -0.00729
    2     0.00004    -1.12219     0.00001
    3     0.00305    -0.00000    -2.89295
 ion   65
    1    -5.52283     0.00161    -0.01837
    2    -0.00810    -1.12318    -0.00005
    3     0.01353     0.00079    -2.89331
 ion   66
    1    -5.52278    -0.00161    -0.01841
    2     0.00813    -1.12318     0.00007
    3     0.01355    -0.00079    -2.89331
 ion   67
    1    -5.53837     0.00004     0.01504
    2     0.00005    -1.12019    -0.00001
    3    -0.00311     0.00000    -2.89849
 ion   68
    1    -5.55636    -0.00310     0.03825
    2     0.00497    -1.12529    -0.00386
    3    -0.02100    -0.00863    -2.90265
 ion   69
    1    -5.55636     0.00314     0.03817
    2    -0.00490    -1.12528     0.00388
    3    -0.02105     0.00864    -2.90263
 ion   70
    1    -5.53888    -0.00001     0.01719
    2    -0.00002    -1.12294    -0.00001
    3     0.00179    -0.00002    -2.88881
 ion   71
    1    -5.51274    -0.00791     0.04838
    2     0.00945    -1.12409     0.00203
    3     0.00782    -0.00135    -2.87510
 ion   72
    1    -5.51271     0.00796     0.04837
    2    -0.00936    -1.12411    -0.00204
    3     0.00782     0.00136    -2.87508
 ion   73
    1    -5.53275     0.00000     0.01257
    2    -0.00003    -1.12108     0.00002
    3     0.00035     0.00001    -2.89744
 ion   74
    1    -5.52846     0.00493     0.02900
    2    -0.00382    -1.12630    -0.00321
    3     0.00132     0.00235    -2.90527
 ion   75
    1    -5.52856    -0.00493     0.02901
    2     0.00382    -1.12633     0.00318
    3     0.00128    -0.00236    -2.90527
 ion   76
    1    -5.54519    -0.00001    -0.00089
    2    -0.00002    -1.12218     0.00000
    3    -0.00125    -0.00002    -2.89171
 ion   77
    1    -5.55520     0.00048     0.00543
    2     0.00855    -1.12427    -0.00218
    3    -0.00615    -0.00028    -2.88805
 ion   78
    1    -5.55513    -0.00043     0.00537
    2    -0.00856    -1.12428     0.00218
    3    -0.00620     0.00029    -2.88804
 ion   79
    1    -5.53536     0.00003     0.01424
    2    -0.00002    -1.12378    -0.00002
    3     0.00105     0.00001    -2.88964
 ion   80
    1    -5.53328     0.00335     0.03526
    2    -0.00454    -1.11979     0.00298
    3     0.00384    -0.00276    -2.88029
 ion   81
    1    -5.53322    -0.00338     0.03526
    2     0.00446    -1.11975    -0.00298
    3     0.00384     0.00276    -2.88028
 ion   82
    1    -1.12015     0.00001     0.00193
    2     0.00000    -5.53785     0.00002
    3     0.00304    -0.00001    -2.89280
 ion   83
    1    -1.11762    -0.00835     0.00555
    2     0.00653    -5.53707    -0.00155
    3     0.00986     0.00202    -2.89212
 ion   84
    1    -1.11759     0.00834     0.00559
    2    -0.00660    -5.53700     0.00153
    3     0.00985    -0.00205    -2.89208
 ion   85
    1    -1.13142     0.00001     0.00595
    2     0.00000    -5.53263    -0.00001
    3    -0.00128     0.00001    -2.89071
 ion   86
    1    -1.14013     0.11120     0.04345
    2    -0.00429    -5.51113     0.03471
    3    -0.00562    -0.02874    -2.89189
 ion   87
    1    -1.14012    -0.11120     0.04344
    2     0.00429    -5.51114    -0.03476
    3    -0.00562     0.02874    -2.89188
 ion   88
    1    -1.11723     0.00000     0.00232
    2    -0.00000    -5.54124     0.00001
    3    -0.00127    -0.00001    -2.89621
 ion   89
    1    -1.11144     0.07378     0.03073
    2    -0.00344    -5.56601    -0.04311
    3    -0.00686     0.04777    -2.88566
 ion   90
    1    -1.11143    -0.07380     0.03072
    2     0.00349    -5.56610     0.04318
    3    -0.00686    -0.04777    -2.88567
 ion   91
    1    -1.12067    -0.00048    -0.00117
    2     0.00089    -5.53642     0.00031
    3    -0.00185     0.00035    -2.89363
 ion   92
    1    -1.11917    -0.00003     0.00644
    2     0.00004    -5.53517    -0.00001
    3    -0.00336    -0.00002    -2.89135
 ion   93
    1    -1.12068     0.00045    -0.00117
    2    -0.00089    -5.53639    -0.00032
    3    -0.00186    -0.00040    -2.89362
 ion   94
    1    -1.13002     0.02113     0.00817
    2    -0.00000    -5.54091    -0.00384
    3     0.00022    -0.01124    -2.88846
 ion   95
    1    -1.15049     0.00002     0.12198
    2    -0.00000    -5.59918     0.00001
    3    -0.00219    -0.00001    -2.91645
 ion   96
    1    -1.13001    -0.02118     0.00819
    2    -0.00003    -5.54088     0.00379
    3     0.00023     0.01126    -2.88848
 ion   97
    1    -1.11902     0.01377     0.00568
    2    -0.00057    -5.53159     0.00531
    3     0.00156     0.01277    -2.89810
 ion   98
    1    -1.09572    -0.00003     0.08377
    2    -0.00006    -5.45933    -0.00002
    3     0.00088    -0.00001    -2.83726
 ion   99
    1    -1.11901    -0.01379     0.00572
    2     0.00055    -5.53162    -0.00530
    3     0.00157    -0.01280    -2.89810
 ion  100
    1    -5.52768     0.00730    -0.02017
    2    -0.00109    -1.11950    -0.00244
    3    -0.00546     0.00028    -2.89311
 ion  101
    1    -5.40385     0.00004    -0.05880
    2    -0.00002    -1.12294     0.00002
    3    -0.04015     0.00003    -2.81451
 ion  102
    1    -5.52769    -0.00729    -0.02012
    2     0.00110    -1.11950     0.00243
    3    -0.00546    -0.00030    -2.89310
 ion  103
    1    -5.55108     0.00340     0.00142
    2     0.00476    -1.12300     0.00129
    3     0.00682     0.00002    -2.89565
 ion  104
    1    -5.53708     0.00002     0.08667
    2     0.00001    -1.12152     0.00000
    3     0.03784     0.00001    -2.84377
 ion  105
    1    -5.55103    -0.00341     0.00139
    2    -0.00479    -1.12300    -0.00129
    3     0.00681    -0.00002    -2.89567
 ion  106
    1    -5.53341     0.00517    -0.02463
    2    -0.00338    -1.12880     0.00391
    3    -0.00089     0.00109    -2.89305
 ion  107
    1    -5.58309    -0.00002    -0.10328
    2     0.00001    -1.12096     0.00002
    3    -0.04962     0.00000    -2.95364
 ion  108
    1    -5.53341    -0.00515    -0.02465
    2     0.00337    -1.12880    -0.00391
    3    -0.00091    -0.00109    -2.89304


--------------------------------------------------------------------------------------------------------


     LOOP+:  cpu time   1809.8351: real time   1861.0410
    4ORBIT:  cpu time      0.0000: real time      0.0000

 total amount of memory used by VASP MPI-rank0   266724. kBytes
=======================================================================

   base      :      30000. kBytes
   nonlr-proj:      19555. kBytes
   fftplans  :      10927. kBytes
   grid      :      23181. kBytes
   one-center:       1679. kBytes
   wavefun   :     181382. kBytes



 General timing and accounting informations for this job:
 ========================================================

                  Total CPU time used (sec):     1820.494
                            User time (sec):     1757.600
                          System time (sec):       62.894
                         Elapsed time (sec):     1880.495

                   Maximum memory used (kb):     1083564.
                   Average memory used (kb):          N/A

                          Minor page faults:      3501667
                          Major page faults:           12
                 Voluntary context switches:       133352
