 vasp.6.3.0 20Jan22 (build Mar 29 2022 16:24:06) complex

 executed on             Bridges2 date 2023.01.10  17:19:54
 running on   32 total cores
 distrk:  each k-point on    4 cores,    8 groups
 distr:  one band on NCORE=   1 cores,    4 groups


--------------------------------------------------------------------------------------------------------


 INCAR:
   ICHARG = 2
   LWAVE = .FALSE.
   LCHARG = .FALSE.
   LVTOT = .FALSE.
   NCORE = 1
   KPAR = 8
   EDIFF = 1E-7
   NELM = 80
   PREC = Normal
   LREAL = Auto
   NELMIN = 4
   ENCUT = 400.0 eV
   ISPIN = 1
   ISMEAR = 0
   SIGMA = 0.10
   NSW = 0
   LEPSILON = .TRUE.
   LPEAD = .TRUE.
   ISYM = 0

 POTCAR:    PAW_PBE Ti_pv 07Sep2000
 POTCAR:    PAW_PBE O 08Apr2002
 -----------------------------------------------------------------------------
|                                                                             |
|           W    W    AA    RRRRR   N    N  II  N    N   GGGG   !!!           |
|           W    W   A  A   R    R  NN   N  II  NN   N  G    G  !!!           |
|           W    W  A    A  R    R  N N  N  II  N N  N  G       !!!           |
|           W WW W  AAAAAA  RRRRR   N  N N  II  N  N N  G  GGG   !            |
|           WW  WW  A    A  R   R   N   NN  II  N   NN  G    G                |
|           W    W  A    A  R    R  N    N  II  N    N   GGGG   !!!           |
|                                                                             |
|     For optimal performance we recommend to set                             |
|       NCORE = 2 up to number-of-cores-per-socket                            |
|     NCORE specifies how many cores store one orbital (NPAR=cpu/NCORE).      |
|     This setting can greatly improve the performance of VASP for DFT.       |
|     The default, NCORE=1 might be grossly inefficient on modern             |
|     multi-core architectures or massively parallel machines. Do your        |
|     own testing! More info at https://www.vasp.at/wiki/index.php/NCORE      |
|     Unfortunately you need to use the default for GW and RPA                |
|     calculations (for HF NCORE is supported but not extensively tested      |
|     yet).                                                                   |
|                                                                             |
 -----------------------------------------------------------------------------

 POTCAR:    PAW_PBE Ti_pv 07Sep2000
   VRHFIN =Ti: d3 s1
   LEXCH  = PE
   EATOM  =  1042.5995 eV,   76.6289 Ry

   TITEL  = PAW_PBE Ti_pv 07Sep2000
   LULTRA =        F    use ultrasoft PP ?
   IUNSCR =        1    unscreen: 0-lin 1-nonlin 2-no
   RPACOR =    2.200    partial core radius
   POMASS =   47.880; ZVAL   =   10.000    mass and valenz
   RCORE  =    2.500    outmost cutoff radius
   RWIGS  =    2.500; RWIGS  =    1.323    wigner-seitz radius (au A)
   ENMAX  =  222.335; ENMIN  =  166.751 eV
   RCLOC  =    1.701    cutoff for local pot
   LCOR   =        T    correct aug charges
   LPAW   =        T    paw PP
   EAUG   =  482.848
   DEXC   =    0.000
   RMAX   =    2.564    core radius for proj-oper
   RAUG   =    1.300    factor for augmentation sphere
   RDEP   =    2.538    radius for radial grids
   RDEPT  =    1.952    core radius for aug-charge

   Atomic configuration
    8 entries
     n  l   j            E        occ.
     1  0  0.50     -4865.3608   2.0000
     2  0  0.50      -533.1368   2.0000
     2  1  1.50      -440.5031   6.0000
     3  0  0.50       -59.3186   2.0000
     3  1  1.50       -35.7012   6.0000
     3  2  2.50        -1.9157   3.0000
     4  0  0.50        -3.7291   1.0000
     4  3  2.50        -1.3606   0.0000
   Description
     l       E           TYP  RCUT    TYP  RCUT
     1    -35.7012140     23  2.300
     1     -1.3605826     23  2.300
     2     -1.9156996     23  2.500
     2     -0.4063033     23  2.500
     0     -3.7290856     23  2.500
     0     20.4087390     23  2.500
  local pseudopotential read in
  partial core-charges read in
  partial kinetic energy density read in
  atomic valenz-charges read in
  non local Contribution for L=           1  read in
    real space projection operators read in
  non local Contribution for L=           1  read in
    real space projection operators read in
  non local Contribution for L=           2  read in
    real space projection operators read in
  non local Contribution for L=           2  read in
    real space projection operators read in
  non local Contribution for L=           0  read in
    real space projection operators read in
  non local Contribution for L=           0  read in
    real space projection operators read in
    PAW grid and wavefunctions read in

   number of l-projection  operators is LMAX  =           6
   number of lm-projection operators is LMMAX =          18

 POTCAR:    PAW_PBE O 08Apr2002
   VRHFIN =O: s2p4
   LEXCH  = PE
   EATOM  =   432.3788 eV,   31.7789 Ry

   TITEL  = PAW_PBE O 08Apr2002
   LULTRA =        F    use ultrasoft PP ?
   IUNSCR =        1    unscreen: 0-lin 1-nonlin 2-no
   RPACOR =    1.200    partial core radius
   POMASS =   16.000; ZVAL   =    6.000    mass and valenz
   RCORE  =    1.520    outmost cutoff radius
   RWIGS  =    1.550; RWIGS  =    0.820    wigner-seitz radius (au A)
   ENMAX  =  400.000; ENMIN  =  300.000 eV
   ICORE  =        2    local potential
   LCOR   =        T    correct aug charges
   LPAW   =        T    paw PP
   EAUG   =  605.392
   DEXC   =    0.000
   RMAX   =    1.553    core radius for proj-oper
   RAUG   =    1.300    factor for augmentation sphere
   RDEP   =    1.550    radius for radial grids
   RDEPT  =    1.329    core radius for aug-charge

   Atomic configuration
    4 entries
     n  l   j            E        occ.
     1  0  0.50      -514.6923   2.0000
     2  0  0.50       -23.9615   2.0000
     2  1  0.50        -9.0305   4.0000
     3  2  1.50        -9.5241   0.0000
   Description
     l       E           TYP  RCUT    TYP  RCUT
     0    -23.9615318     23  1.200
     0     -9.5240782     23  1.200
     1     -9.0304911     23  1.520
     1      8.1634956     23  1.520
     2     -9.5240782      7  1.500
  local pseudopotential read in
  partial core-charges read in
  partial kinetic energy density read in
  kinetic energy density of atom read in
  atomic valenz-charges read in
  non local Contribution for L=           0  read in
    real space projection operators read in
  non local Contribution for L=           0  read in
    real space projection operators read in
  non local Contribution for L=           1  read in
    real space projection operators read in
  non local Contribution for L=           1  read in
    real space projection operators read in
    PAW grid and wavefunctions read in

   number of l-projection  operators is LMAX  =           4
   number of lm-projection operators is LMMAX =           8

 Optimization of the real space projectors (new method)

 maximal supplied QI-value         = 15.12
 optimisation between [QCUT,QGAM] = [ 10.13, 20.41] = [ 28.73,116.64] Ry
 Optimized for a Real-space Cutoff    1.51 Angstroem

   l    n(q)    QCUT    max X(q) W(low)/X(q) W(high)/X(q)  e(spline)
   1      9    10.129     4.216    0.12E-04    0.72E-04    0.60E-07
   1      9    10.129     5.422    0.84E-04    0.21E-03    0.15E-06
   2      8    10.129    72.084    0.33E-03    0.35E-04    0.17E-06
   2      8    10.129    65.965    0.33E-03    0.37E-04    0.17E-06
   0      9    10.129    41.531    0.17E-03    0.19E-03    0.81E-07
   0      9    10.129    16.290    0.12E-03    0.14E-03    0.64E-07
 Optimization of the real space projectors (new method)

 maximal supplied QI-value         = 24.76
 optimisation between [QCUT,QGAM] = [ 10.15, 20.30] = [ 28.85,115.39] Ry
 Optimized for a Real-space Cutoff    1.38 Angstroem

   l    n(q)    QCUT    max X(q) W(low)/X(q) W(high)/X(q)  e(spline)
   0      8    10.150    20.381    0.22E-03    0.32E-03    0.29E-06
   0      8    10.150    15.268    0.23E-03    0.35E-03    0.30E-06
   1      8    10.150     5.964    0.46E-03    0.53E-03    0.21E-06
   1      8    10.150     5.382    0.38E-03    0.45E-03    0.19E-06
  PAW_PBE Ti_pv 07Sep2000               :
 energy of atom  1       EATOM=-1042.5995
 kinetic energy error for atom=    0.0037 (will be added to EATOM!!)
  PAW_PBE O 08Apr2002                   :
 energy of atom  2       EATOM= -432.3788
 kinetic energy error for atom=    0.1156 (will be added to EATOM!!)


 POSCAR: Ti4 O8
  positions in cartesian coordinates
  No initial velocities read in
 exchange correlation table for  LEXCH =        8
   RHO(1)=    0.500       N(1)  =     2000
   RHO(2)=  100.500       N(2)  =     4000



--------------------------------------------------------------------------------------------------------


 ion  position               nearest neighbor table
   1  0.167  0.167  0.500-  56 1.94  55 1.94  40 1.94  37 1.94 100 2.00  46 2.00  31 3.06  28 3.06
                            11 3.06  10 3.06
   2  0.167  0.500  0.500-  56 1.94  41 1.94  38 1.94  57 1.94 101 2.00  47 2.00  11 3.06  32 3.06
                            29 3.06  12 3.06
   3  0.167  0.833  0.500-  57 1.94  42 1.94  39 1.94  55 1.94 102 2.00  48 2.00  12 3.06  33 3.06
                            30 3.06  10 3.06
   4  0.500  0.167  0.500-  40 1.94  59 1.94  58 1.94  43 1.94 103 2.00  49 2.00  31 3.06  14 3.06
                            13 3.06  34 3.06
   5  0.482  0.500  0.500-  41 1.74  59 1.95  60 1.95 104 2.01  50 2.01  44 2.13  32 2.94  14 3.07
                            15 3.07
   6  0.500  0.833  0.500-  60 1.94  42 1.94  58 1.94  45 1.94 105 2.00  51 2.00  15 3.06  33 3.06
                            13 3.06  36 3.06
   7  0.833  0.167  0.500-  43 1.94  62 1.94  61 1.94  37 1.94 106 2.00  52 2.00  34 3.06  17 3.06
                            16 3.06  28 3.06
   8  0.833  0.500  0.500-  44 1.94  62 1.94  63 1.94  38 1.94 107 2.00  53 2.00  35 3.06  17 3.06
                            29 3.06  18 3.06
   9  0.833  0.833  0.500-  63 1.94  45 1.94  61 1.94  39 1.94 108 2.00  54 2.00  36 3.06  18 3.06
                            30 3.06  16 3.06
  10  0.167  0.000  0.750-  67 1.94  64 1.94  46 1.94  48 1.94  73 2.00  55 2.00  22 3.06  19 3.06
                             1 3.06   3 3.06
  11  0.167  0.333  0.750-  47 1.94  46 1.94  68 1.94  65 1.94  74 2.00  56 2.00   2 3.06  23 3.06
                            20 3.06   1 3.06
  12  0.167  0.667  0.750-  48 1.94  69 1.94  66 1.94  47 1.94  75 2.00  57 2.00   3 3.06  24 3.06
                            21 3.06   2 3.06
  13  0.500  0.000  0.750-  67 1.94  49 1.94  51 1.94  70 1.94  76 2.00  58 2.00  22 3.06   4 3.06
                            25 3.06   6 3.06
  14  0.500  0.333  0.750-  50 1.94  68 1.94  49 1.94  71 1.94  77 2.00  59 2.00  23 3.06   4 3.06
                            26 3.06   5 3.07
  15  0.500  0.667  0.750-  51 1.94  69 1.94  50 1.94  72 1.94  78 2.00  60 2.00   6 3.06  24 3.06
                            27 3.06   5 3.07
  16  0.833  0.000  0.750-  70 1.94  52 1.94  64 1.94  54 1.94  79 2.00  61 2.00  25 3.06   7 3.06
                            19 3.06   9 3.06
  17  0.833  0.333  0.750-  71 1.94  53 1.94  52 1.94  65 1.94  80 2.00  62 2.00  26 3.06   8 3.06
                             7 3.06  20 3.06
  18  0.833  0.667  0.750-  54 1.94  72 1.94  66 1.94  53 1.94  81 2.00  63 2.00  27 3.06   9 3.06
                            21 3.06   8 3.06
  19  0.000  0.000  0.000-  73 1.94  91 1.94  79 1.94  93 1.94  82 2.00  64 2.00  10 3.06  28 3.06
                            16 3.06  30 3.06
  20  0.000  0.333  0.000-  92 1.94  74 1.94  91 1.94  80 1.94  83 2.00  65 2.00  29 3.06  11 3.06
                            28 3.06  17 3.06
  21  0.000  0.667  0.000-  93 1.94  75 1.94  81 1.94  92 1.94  84 2.00  66 2.00  30 3.06  12 3.06
                            18 3.06  29 3.06
  22  0.333  0.000  0.000-  76 1.94  73 1.94  94 1.94  96 1.94  85 2.00  67 2.00  13 3.06  10 3.06
                            31 3.06  33 3.06
  23  0.333  0.333  0.000-  77 1.94  95 1.94  74 1.94  94 1.94  86 2.00  68 2.00  14 3.06  32 3.06
                            11 3.06  31 3.06
  24  0.333  0.667  0.000-  96 1.94  78 1.94  75 1.94  95 1.94  87 2.00  69 2.00  33 3.06  15 3.06
                            12 3.06  32 3.06
  25  0.667  0.000  0.000-  79 1.94  97 1.94  76 1.94  99 1.94  88 2.00  70 2.00  16 3.06  34 3.06
                            13 3.06  36 3.06
  26  0.667  0.333  0.000-  80 1.94  98 1.94  97 1.94  77 1.94  89 2.00  71 2.00  17 3.06  35 3.06
                            34 3.06  14 3.06
  27  0.667  0.667  0.000-  81 1.94  99 1.94  78 1.94  98 1.94  90 2.00  72 2.00  18 3.06  36 3.06
                            15 3.06  35 3.06
  28  0.000  0.167  0.250-  83 1.94  82 1.94 100 1.94 106 1.94  37 2.00  91 2.00   1 3.06  20 3.06
                            19 3.06   7 3.06
  29  0.000  0.500  0.250-  83 1.94 101 1.94  84 1.94 107 1.94  38 2.00  92 2.00  20 3.06   2 3.06
                             8 3.06  21 3.06
  30  0.000  0.833  0.250-  84 1.94 102 1.94  82 1.94 108 1.94  39 2.00  93 2.00  21 3.06   3 3.06
                             9 3.06  19 3.06
  31  0.333  0.167  0.250- 103 1.94  86 1.94  85 1.94 100 1.94  40 2.00  94 2.00   4 3.06   1 3.06
                            23 3.06  22 3.06
  32  0.333  0.500  0.250-  86 1.94 104 1.94 101 1.94  87 1.94  41 2.00  95 2.00   5 2.94  23 3.06
                             2 3.06  24 3.06
  33  0.333  0.833  0.250-  87 1.94 105 1.94 102 1.94  85 1.94  42 2.00  96 2.00  24 3.06   6 3.06
                             3 3.06  22 3.06
  34  0.667  0.167  0.250- 106 1.94  89 1.94  88 1.94 103 1.94  43 2.00  97 2.00   7 3.06  26 3.06
                            25 3.06   4 3.06
  35  0.667  0.500  0.250- 107 1.94  89 1.94  90 1.94 104 1.94  44 2.00  98 2.00   8 3.06  26 3.06
                            27 3.06
  36  0.667  0.833  0.250-  90 1.94 108 1.94  88 1.94 105 1.94  45 2.00  99 2.00   9 3.06  27 3.06
                            25 3.06   6 3.06
  37  0.000  0.167  0.458-   1 1.94   7 1.94  28 2.00
  38  0.000  0.500  0.458-   2 1.94   8 1.94  29 2.00
  39  0.000  0.833  0.458-   3 1.94   9 1.94  30 2.00
  40  0.333  0.167  0.458-   4 1.94   1 1.94  31 2.00
  41  0.333  0.500  0.458-   5 1.74   2 1.94  32 2.00
  42  0.333  0.833  0.458-   6 1.94   3 1.94  33 2.00
  43  0.667  0.167  0.458-   7 1.94   4 1.94  34 2.00
  44  0.667  0.500  0.458-   8 1.94  35 2.00   5 2.13
  45  0.667  0.833  0.458-   9 1.94   6 1.94  36 2.00
  46  0.167  0.167  0.708-  11 1.94  10 1.94   1 2.00
  47  0.167  0.500  0.708-  11 1.94  12 1.94   2 2.00
  48  0.167  0.833  0.708-  12 1.94  10 1.94   3 2.00
  49  0.500  0.167  0.708-  14 1.94  13 1.94   4 2.00
  50  0.500  0.500  0.708-  14 1.94  15 1.94   5 2.01
  51  0.500  0.833  0.708-  15 1.94  13 1.94   6 2.00
  52  0.833  0.167  0.708-  17 1.94  16 1.94   7 2.00
  53  0.833  0.500  0.708-  17 1.94  18 1.94   8 2.00
  54  0.833  0.833  0.708-  18 1.94  16 1.94   9 2.00
  55  0.167  0.000  0.542-   1 1.94   3 1.94  10 2.00
  56  0.167  0.333  0.542-   2 1.94   1 1.94  11 2.00
  57  0.167  0.667  0.542-   3 1.94   2 1.94  12 2.00
  58  0.500  0.000  0.542-   4 1.94   6 1.94  13 2.00
  59  0.500  0.333  0.542-   4 1.94   5 1.95  14 2.00
  60  0.500  0.667  0.542-   6 1.94   5 1.95  15 2.00
  61  0.833  0.000  0.542-   7 1.94   9 1.94  16 2.00
  62  0.833  0.333  0.542-   8 1.94   7 1.94  17 2.00
  63  0.833  0.667  0.542-   9 1.94   8 1.94  18 2.00
  64  0.000  0.000  0.792-  10 1.94  16 1.94  19 2.00
  65  0.000  0.333  0.792-  11 1.94  17 1.94  20 2.00
  66  0.000  0.667  0.792-  12 1.94  18 1.94  21 2.00
  67  0.333  0.000  0.792-  13 1.94  10 1.94  22 2.00
  68  0.333  0.333  0.792-  14 1.94  11 1.94  23 2.00
  69  0.333  0.667  0.792-  15 1.94  12 1.94  24 2.00
  70  0.667  0.000  0.792-  16 1.94  13 1.94  25 2.00
  71  0.667  0.333  0.792-  17 1.94  14 1.94  26 2.00
  72  0.667  0.667  0.792-  18 1.94  15 1.94  27 2.00
  73  0.167  0.000  0.958-  22 1.94  19 1.94  10 2.00
  74  0.167  0.333  0.958-  23 1.94  20 1.94  11 2.00
  75  0.167  0.667  0.958-  24 1.94  21 1.94  12 2.00
  76  0.500  0.000  0.958-  22 1.94  25 1.94  13 2.00
  77  0.500  0.333  0.958-  23 1.94  26 1.94  14 2.00
  78  0.500  0.667  0.958-  24 1.94  27 1.94  15 2.00
  79  0.833  0.000  0.958-  25 1.94  19 1.94  16 2.00
  80  0.833  0.333  0.958-  26 1.94  20 1.94  17 2.00
  81  0.833  0.667  0.958-  27 1.94  21 1.94  18 2.00
  82  0.000  0.000  0.208-  28 1.94  30 1.94  19 2.00
  83  0.000  0.333  0.208-  29 1.94  28 1.94  20 2.00
  84  0.000  0.667  0.208-  30 1.94  29 1.94  21 2.00
  85  0.333  0.000  0.208-  31 1.94  33 1.94  22 2.00
  86  0.333  0.333  0.208-  32 1.94  31 1.94  23 2.00
  87  0.333  0.667  0.208-  33 1.94  32 1.94  24 2.00
  88  0.667  0.000  0.208-  34 1.94  36 1.94  25 2.00
  89  0.667  0.333  0.208-  35 1.94  34 1.94  26 2.00
  90  0.667  0.667  0.208-  36 1.94  35 1.94  27 2.00
  91  0.000  0.167  0.042-  20 1.94  19 1.94  28 2.00
  92  0.000  0.500  0.042-  20 1.94  21 1.94  29 2.00
  93  0.000  0.833  0.042-  21 1.94  19 1.94  30 2.00
  94  0.333  0.167  0.042-  23 1.94  22 1.94  31 2.00
  95  0.333  0.500  0.042-  23 1.94  24 1.94  32 2.00
  96  0.333  0.833  0.042-  24 1.94  22 1.94  33 2.00
  97  0.667  0.167  0.042-  26 1.94  25 1.94  34 2.00
  98  0.667  0.500  0.042-  26 1.94  27 1.94  35 2.00
  99  0.667  0.833  0.042-  27 1.94  25 1.94  36 2.00
 100  0.167  0.167  0.292-  31 1.94  28 1.94   1 2.00
 101  0.167  0.500  0.292-  32 1.94  29 1.94   2 2.00
 102  0.167  0.833  0.292-  33 1.94  30 1.94   3 2.00
 103  0.500  0.167  0.292-  31 1.94  34 1.94   4 2.00
 104  0.500  0.500  0.292-  32 1.94  35 1.94   5 2.01
 105  0.500  0.833  0.292-  33 1.94  36 1.94   6 2.00
 106  0.833  0.167  0.292-  34 1.94  28 1.94   7 2.00
 107  0.833  0.500  0.292-  35 1.94  29 1.94   8 2.00
 108  0.833  0.833  0.292-  36 1.94  30 1.94   9 2.00


IMPORTANT INFORMATION: All symmetrisations will be switched off!
NOSYMM: (Re-)initialisation of all symmetry stuff for point group C_1.


----------------------------------------------------------------------------------------

                                     Primitive cell

  volume of cell :    1243.1447

  direct lattice vectors                    reciprocal lattice vectors
    11.376843452  0.000000000  0.000000000     0.087897843  0.000000000  0.000000000
     0.000000000 11.376843452  0.000000000     0.000000000  0.087897843  0.000000000
     0.000000000  0.000000000  9.604574204     0.000000000  0.000000000  0.104117057

  length of vectors
    11.376843452 11.376843452  9.604574204     0.087897843  0.087897843  0.104117057

  position of ions in fractional coordinates (direct lattice)
     0.166666672  0.166666672  0.500000000
     0.166666672  0.500000000  0.500000000
     0.166666672  0.833333313  0.500000000
     0.500000000  0.166666672  0.500000000
     0.482420431  0.500000000  0.500000000
     0.500000000  0.833333313  0.500000000
     0.833333313  0.166666672  0.500000000
     0.833333313  0.500000000  0.500000000
     0.833333313  0.833333313  0.500000000
     0.166666672  0.000000000  0.750000000
     0.166666672  0.333333343  0.750000000
     0.166666672  0.666666687  0.750000000
     0.500000000  0.000000000  0.750000000
     0.500000000  0.333333343  0.750000000
     0.500000000  0.666666687  0.750000000
     0.833333313  0.000000000  0.750000000
     0.833333313  0.333333343  0.750000000
     0.833333313  0.666666687  0.750000000
     0.000000000  0.000000000  0.000000000
     0.000000000  0.333333343  0.000000000
     0.000000000  0.666666687  0.000000000
     0.333333343  0.000000000  0.000000000
     0.333333343  0.333333343  0.000000000
     0.333333343  0.666666687  0.000000000
     0.666666687  0.000000000  0.000000000
     0.666666687  0.333333343  0.000000000
     0.666666687  0.666666687  0.000000000
     0.000000000  0.166666672  0.250000000
     0.000000000  0.500000000  0.250000000
     0.000000000  0.833333313  0.250000000
     0.333333343  0.166666672  0.250000000
     0.333333343  0.500000000  0.250000000
     0.333333343  0.833333313  0.250000000
     0.666666687  0.166666672  0.250000000
     0.666666687  0.500000000  0.250000000
     0.666666687  0.833333313  0.250000000
     0.000000000  0.166666672  0.457898587
     0.000000000  0.500000000  0.457898587
     0.000000000  0.833333313  0.457898587
     0.333333343  0.166666672  0.457898587
     0.333333343  0.500000000  0.457898587
     0.333333343  0.833333313  0.457898587
     0.666666687  0.166666672  0.457898587
     0.666666687  0.500000000  0.457898587
     0.666666687  0.833333313  0.457898587
     0.166666672  0.166666672  0.707898617
     0.166666672  0.500000000  0.707898617
     0.166666672  0.833333313  0.707898617
     0.500000000  0.166666672  0.707898617
     0.500000000  0.500000000  0.707898617
     0.500000000  0.833333313  0.707898617
     0.833333313  0.166666672  0.707898617
     0.833333313  0.500000000  0.707898617
     0.833333313  0.833333313  0.707898617
     0.166666672  0.000000000  0.542101383
     0.166666672  0.333333343  0.542101383
     0.166666672  0.666666687  0.542101383
     0.500000000  0.000000000  0.542101383
     0.500000000  0.333333343  0.542101383
     0.500000000  0.666666687  0.542101383
     0.833333313  0.000000000  0.542101383
     0.833333313  0.333333343  0.542101383
     0.833333313  0.666666687  0.542101383
     0.000000000  0.000000000  0.792101383
     0.000000000  0.333333343  0.792101383
     0.000000000  0.666666687  0.792101383
     0.333333343  0.000000000  0.792101383
     0.333333343  0.333333343  0.792101383
     0.333333343  0.666666687  0.792101383
     0.666666687  0.000000000  0.792101383
     0.666666687  0.333333343  0.792101383
     0.666666687  0.666666687  0.792101383
     0.166666672  0.000000000  0.957898617
     0.166666672  0.333333343  0.957898617
     0.166666672  0.666666687  0.957898617
     0.500000000  0.000000000  0.957898617
     0.500000000  0.333333343  0.957898617
     0.500000000  0.666666687  0.957898617
     0.833333313  0.000000000  0.957898617
     0.833333313  0.333333343  0.957898617
     0.833333313  0.666666687  0.957898617
     0.000000000  0.000000000  0.207898602
     0.000000000  0.333333343  0.207898602
     0.000000000  0.666666687  0.207898602
     0.333333343  0.000000000  0.207898602
     0.333333343  0.333333343  0.207898602
     0.333333343  0.666666687  0.207898602
     0.666666687  0.000000000  0.207898602
     0.666666687  0.333333343  0.207898602
     0.666666687  0.666666687  0.207898602
     0.000000000  0.166666672  0.042101406
     0.000000000  0.500000000  0.042101406
     0.000000000  0.833333313  0.042101406
     0.333333343  0.166666672  0.042101406
     0.333333343  0.500000000  0.042101406
     0.333333343  0.833333313  0.042101406
     0.666666687  0.166666672  0.042101406
     0.666666687  0.500000000  0.042101406
     0.666666687  0.833333313  0.042101406
     0.166666672  0.166666672  0.292101413
     0.166666672  0.500000000  0.292101413
     0.166666672  0.833333313  0.292101413
     0.500000000  0.166666672  0.292101413
     0.500000000  0.500000000  0.292101413
     0.500000000  0.833333313  0.292101413
     0.833333313  0.166666672  0.292101413
     0.833333313  0.500000000  0.292101413
     0.833333313  0.833333313  0.292101413

  ion indices of the primitive-cell ions
   primitive index   ion index
                 1           1
                 2           2
                 3           3
                 4           4
                 5           5
                 6           6
                 7           7
                 8           8
                 9           9
                10          10
                11          11
                12          12
                13          13
                14          14
                15          15
                16          16
                17          17
                18          18
                19          19
                20          20
                21          21
                22          22
                23          23
                24          24
                25          25
                26          26
                27          27
                28          28
                29          29
                30          30
                31          31
                32          32
                33          33
                34          34
                35          35
                36          36
                37          37
                38          38
                39          39
                40          40
                41          41
                42          42
                43          43
                44          44
                45          45
                46          46
                47          47
                48          48
                49          49
                50          50
                51          51
                52          52
                53          53
                54          54
                55          55
                56          56
                57          57
                58          58
                59          59
                60          60
                61          61
                62          62
                63          63
                64          64
                65          65
                66          66
                67          67
                68          68
                69          69
                70          70
                71          71
                72          72
                73          73
                74          74
                75          75
                76          76
                77          77
                78          78
                79          79
                80          80
                81          81
                82          82
                83          83
                84          84
                85          85
                86          86
                87          87
                88          88
                89          89
                90          90
                91          91
                92          92
                93          93
                94          94
                95          95
                96          96
                97          97
                98          98
                99          99
               100         100
               101         101
               102         102
               103         103
               104         104
               105         105
               106         106
               107         107
               108         108

----------------------------------------------------------------------------------------



 KPOINTS: K-Points

Automatic generation of k-mesh.
 Grid dimensions read from file:
 generate k-points for:    2    2    2

 Generating k-lattice:

  Cartesian coordinates                     Fractional coordinates (reciprocal lattice)
     0.043948922  0.000000000  0.000000000     0.500000000  0.000000000  0.000000000
     0.000000000  0.043948922  0.000000000     0.000000000  0.500000000  0.000000000
     0.000000000  0.000000000  0.052058529     0.000000000  0.000000000  0.500000000

  Length of vectors
     0.043948922  0.043948922  0.052058529

  Shift w.r.t. Gamma in fractional coordinates (k-lattice)
     0.500000000  0.500000000  0.500000000


 Subroutine IBZKPT returns following result:
 ===========================================

 Found      4 irreducible k-points:

 Following reciprocal coordinates:
            Coordinates               Weight
  0.250000  0.250000  0.250000      2.000000
 -0.250000  0.250000  0.250000      2.000000
 -0.250000 -0.250000  0.250000      2.000000
  0.250000 -0.250000  0.250000      2.000000

 Following cartesian coordinates:
            Coordinates               Weight
  0.021974  0.021974  0.026029      2.000000
 -0.021974  0.021974  0.026029      2.000000
 -0.021974 -0.021974  0.026029      2.000000
  0.021974 -0.021974  0.026029      2.000000


 Subroutine IBZKPT_HF returns following result:
 ==============================================

 Found      8 k-points in 1st BZ
 the following      8 k-points will be used (e.g. in the exchange kernel)
 Following reciprocal coordinates:   # in IRBZ
  0.250000  0.250000  0.250000    0.12500000   1 t-inv F
 -0.250000  0.250000  0.250000    0.12500000   2 t-inv F
 -0.250000 -0.250000  0.250000    0.12500000   3 t-inv F
  0.250000 -0.250000  0.250000    0.12500000   4 t-inv F
 -0.250000 -0.250000 -0.250000    0.12500000   1 t-inv T
  0.250000 -0.250000 -0.250000    0.12500000   2 t-inv T
  0.250000  0.250000 -0.250000    0.12500000   3 t-inv T
 -0.250000  0.250000 -0.250000    0.12500000   4 t-inv T


--------------------------------------------------------------------------------------------------------




 Dimension of arrays:
   k-points           NKPTS =      4   k-points in BZ     NKDIM =      4   number of bands    NBANDS=    476
   number of dos      NEDOS =    301   number of ions     NIONS =    108
   non local maximal  LDIM  =      6   non local SUM 2l+1 LMDIM =     18
   total plane-waves  NPLWV = 150528
   max r-space proj   IRMAX =   1791   max aug-charges    IRDMAX=   4900
   dimension x,y,z NGX =    56 NGY =   56 NGZ =   48
   dimension x,y,z NGXF=   112 NGYF=  112 NGZF=   96
   support grid    NGXF=   112 NGYF=  112 NGZF=   96
   ions per type =              36  72
   NGX,Y,Z   is equivalent  to a cutoff of   8.18,  8.18,  8.31 a.u.
   NGXF,Y,Z  is equivalent  to a cutoff of  16.37, 16.37, 16.62 a.u.

 SYSTEM =  unknown system
 POSCAR =  Ti4 O8

 Startparameter for this run:
   NWRITE =      2    write-flag & timer
   PREC   = normal    normal or accurate (medium, high low for compatibility)
   ISTART =      0    job   : 0-new  1-cont  2-samecut
   ICHARG =      2    charge: 1-file 2-atom 10-const
   ISPIN  =      1    spin polarized calculation?
   LNONCOLLINEAR =      F non collinear calculations
   LSORBIT =      F    spin-orbit coupling
   INIWAV =      1    electr: 0-lowe 1-rand  2-diag
   LASPH  =      F    aspherical Exc in radial PAW
 Electronic Relaxation 1
   ENCUT  =  400.0 eV  29.40 Ry    5.42 a.u.  18.55 18.55 15.66*2*pi/ulx,y,z
   ENINI  =  400.0     initial cutoff
   ENAUG  =  605.4 eV  augmentation charge cutoff
   NELM   =     80;   NELMIN=  4; NELMDL= -5     # of ELM steps
   EDIFF  = 0.1E-06   stopping-criterion for ELM
   LREAL  =      T    real-space projection
   NLSPLINE    = F    spline interpolate recip. space projectors
   LCOMPAT=      F    compatible to vasp.4.4
   GGA_COMPAT  = T    GGA compatible to vasp.4.4-vasp.4.6
   LMAXPAW     = -100 max onsite density
   LMAXMIX     =    2 max onsite mixed and CHGCAR
   VOSKOWN=      0    Vosko Wilk Nusair interpolation
   ROPT   =   -0.00050  -0.00050
 Ionic relaxation
   EDIFFG = 0.1E-05   stopping-criterion for IOM
   NSW    =      0    number of steps for IOM
   NBLOCK =      1;   KBLOCK =      1    inner block; outer block
   IBRION =     -1    ionic relax: 0-MD 1-quasi-New 2-CG
   NFREE  =      0    steps in history (QN), initial steepest desc. (CG)
   ISIF   =      2    stress and relaxation
   IWAVPR =     10    prediction:  0-non 1-charg 2-wave 3-comb
   ISYM   =      0    0-nonsym 1-usesym 2-fastsym
   LCORR  =      T    Harris-Foulkes like correction to forces

   POTIM  = 0.5000    time-step for ionic-motion
   TEIN   =    0.0    initial temperature
   TEBEG  =    0.0;   TEEND  =   0.0 temperature during run
   SMASS  =  -3.00    Nose mass-parameter (am)
   estimated Nose-frequenzy (Omega)   =  0.10E-29 period in steps = 0.13E+47 mass=  -0.296E-26a.u.
   SCALEE = 1.0000    scale energy and forces
   NPACO  =    256;   APACO  = 10.0  distance and # of slots for P.C.
   PSTRESS=    0.0 pullay stress

  Mass of Ions in am
   POMASS =  47.88 16.00
  Ionic Valenz
   ZVAL   =  10.00  6.00
  Atomic Wigner-Seitz radii
   RWIGS  =  -1.00 -1.00
  virtual crystal weights
   VCA    =   1.00  1.00
   NELECT =     792.0000    total number of electrons
   NUPDOWN=      -1.0000    fix difference up-down

 DOS related values:
   EMIN   =  10.00;   EMAX   =-10.00  energy-range for DOS
   EFERMI =   0.00
   ISMEAR =     0;   SIGMA  =   0.10  broadening in eV -4-tet -1-fermi 0-gaus

 Electronic relaxation 2 (details)
   IALGO  =     38    algorithm
   LDIAG  =      T    sub-space diagonalisation (order eigenvalues)
   LSUBROT=      F    optimize rotation matrix (better conditioning)
   TURBO    =      0    0=normal 1=particle mesh
   IRESTART =      0    0=no restart 2=restart with 2 vectors
   NREBOOT  =      0    no. of reboots
   NMIN     =      0    reboot dimension
   EREF     =   0.00    reference energy to select bands
   IMIX   =      4    mixing-type and parameters
     AMIX     =   0.40;   BMIX     =  1.00
     AMIX_MAG =   1.60;   BMIX_MAG =  1.00
     AMIN     =   0.10
     WC   =   100.;   INIMIX=   1;  MIXPRE=   1;  MAXMIX= -45

 Intra band minimization:
   WEIMIN = 0.0000     energy-eigenvalue tresh-hold
   EBREAK =  0.53E-10  absolut break condition
   DEPER  =   0.30     relativ break condition

   TIME   =   0.40     timestep for ELM

  volume/ion in A,a.u.               =      11.51        77.68
  Fermi-wavevector in a.u.,A,eV,Ry     =   1.408670  2.662001 26.998745  1.984352
  Thomas-Fermi vector in A             =   2.530804

 Write flags
   LWAVE        =      F    write WAVECAR
   LDOWNSAMPLE  =      F    k-point downsampling of WAVECAR
   LCHARG       =      F    write CHGCAR
   LVTOT        =      F    write LOCPOT, total local potential
   LVHAR        =      F    write LOCPOT, Hartree potential only
   LELF         =      F    write electronic localiz. function (ELF)
   LORBIT       =      0    0 simple, 1 ext, 2 COOP (PROOUT), +10 PAW based schemes


 Dipole corrections
   LMONO  =      F    monopole corrections only (constant potential shift)
   LDIPOL =      F    correct potential (dipole corrections)
   IDIPOL =      0    1-x, 2-y, 3-z, 4-all directions
   EPSILON=  1.0000000 bulk dielectric constant

 Exchange correlation treatment:
   GGA     =    --    GGA type
   LEXCH   =     8    internal setting for exchange type
   LIBXC   =     F    Libxc
   VOSKOWN =     0    Vosko Wilk Nusair interpolation
   LHFCALC =     F    Hartree Fock is set to
   LHFONE  =     F    Hartree Fock one center treatment
   AEXX    =    0.0000 exact exchange contribution

 Linear response parameters
   LEPSILON=     T    determine dielectric tensor
   LRPA    =     F    only Hartree local field effects (RPA)
   LNABLA  =     F    use nabla operator in PAW spheres
   LVEL    =     F    velocity operator in full k-point grid
   CSHIFT  =0.1000    complex shift for real part using Kramers Kronig
   OMEGAMAX=  -1.0    maximum frequency
   DEG_THRESHOLD= 0.2000000E-02 threshold for treating states as degnerate
   RTIME   =   -0.100 relaxation time in fs
  (WPLASMAI=    0.000 imaginary part of plasma frequency in eV, 0.658/RTIME)
   DFIELD  = 0.0000000 0.0000000 0.0000000 field for delta impulse in time

  Optional k-point grid parameters
   LKPOINTS_OPT  =     F    use optional k-point grid
   KPOINTS_OPT_MODE=     1    mode for optional k-point grid

 Orbital magnetization related:
   ORBITALMAG=     F  switch on orbital magnetization
   LCHIMAG   =     F  perturbation theory with respect to B field
   DQ        =  0.001000  dq finite difference perturbation B field
   LLRAUG    =     F  two centre corrections for induced B field

 PEAD related settings:
   LPEAD      =     T    switch on PEAD
   IPEAD      =     4    finite difference order for dpsi/dk
   LCALCPOL   =     F    calculate macroscopic polarization
   LCALCEPS   =     F    calculate dielectric tensor
   EFIELD_PEAD=    0.0000    0.0000    0.0000
   SKIP_EDOTP =     F
   LRPA       =     F
   SKIP_SCF   =     F


--------------------------------------------------------------------------------------------------------


 Static calculation
 charge density and potential will be updated during run
 non-spin polarized calculation
 Variant of blocked Davidson
 Davidson routine will perform the subspace rotation
 perform sub-space diagonalisation
    after iterative eigenvector-optimisation
 modified Broyden-mixing scheme, WC =      100.0
 initial mixing is a Kerker type mixing with AMIX =  0.4000 and BMIX =      1.0000
 Hartree-type preconditioning will be used
 using additional bands           80
 real space projection scheme for non local part
 use partial core corrections
 calculate Harris-corrections to forces
   (improved forces if not selfconsistent)
 use gradient corrections
 use of overlap-Matrix (Vanderbilt PP)
 Gauss-broadening in eV      SIGMA  =   0.10


--------------------------------------------------------------------------------------------------------


  energy-cutoff  :      400.00
  volume of cell :     1243.14
      direct lattice vectors                 reciprocal lattice vectors
    11.376843452  0.000000000  0.000000000     0.087897843  0.000000000  0.000000000
     0.000000000 11.376843452  0.000000000     0.000000000  0.087897843  0.000000000
     0.000000000  0.000000000  9.604574204     0.000000000  0.000000000  0.104117057

  length of vectors
    11.376843452 11.376843452  9.604574204     0.087897843  0.087897843  0.104117057



 k-points in units of 2pi/SCALE and weight: K-Points
   0.02197446  0.02197446  0.02602926       0.250
  -0.02197446  0.02197446  0.02602926       0.250
  -0.02197446 -0.02197446  0.02602926       0.250
   0.02197446 -0.02197446  0.02602926       0.250

 k-points in reciprocal lattice and weights: K-Points
   0.25000000  0.25000000  0.25000000       0.250
  -0.25000000  0.25000000  0.25000000       0.250
  -0.25000000 -0.25000000  0.25000000       0.250
   0.25000000 -0.25000000  0.25000000       0.250

 position of ions in fractional coordinates (direct lattice)
   0.16666667  0.16666667  0.50000000
   0.16666667  0.50000000  0.50000000
   0.16666667  0.83333331  0.50000000
   0.50000000  0.16666667  0.50000000
   0.48242043  0.50000000  0.50000000
   0.50000000  0.83333331  0.50000000
   0.83333331  0.16666667  0.50000000
   0.83333331  0.50000000  0.50000000
   0.83333331  0.83333331  0.50000000
   0.16666667  0.00000000  0.75000000
   0.16666667  0.33333334  0.75000000
   0.16666667  0.66666669  0.75000000
   0.50000000  0.00000000  0.75000000
   0.50000000  0.33333334  0.75000000
   0.50000000  0.66666669  0.75000000
   0.83333331  0.00000000  0.75000000
   0.83333331  0.33333334  0.75000000
   0.83333331  0.66666669  0.75000000
   0.00000000  0.00000000  0.00000000
   0.00000000  0.33333334  0.00000000
   0.00000000  0.66666669  0.00000000
   0.33333334  0.00000000  0.00000000
   0.33333334  0.33333334  0.00000000
   0.33333334  0.66666669  0.00000000
   0.66666669  0.00000000  0.00000000
   0.66666669  0.33333334  0.00000000
   0.66666669  0.66666669  0.00000000
   0.00000000  0.16666667  0.25000000
   0.00000000  0.50000000  0.25000000
   0.00000000  0.83333331  0.25000000
   0.33333334  0.16666667  0.25000000
   0.33333334  0.50000000  0.25000000
   0.33333334  0.83333331  0.25000000
   0.66666669  0.16666667  0.25000000
   0.66666669  0.50000000  0.25000000
   0.66666669  0.83333331  0.25000000
   0.00000000  0.16666667  0.45789859
   0.00000000  0.50000000  0.45789859
   0.00000000  0.83333331  0.45789859
   0.33333334  0.16666667  0.45789859
   0.33333334  0.50000000  0.45789859
   0.33333334  0.83333331  0.45789859
   0.66666669  0.16666667  0.45789859
   0.66666669  0.50000000  0.45789859
   0.66666669  0.83333331  0.45789859
   0.16666667  0.16666667  0.70789862
   0.16666667  0.50000000  0.70789862
   0.16666667  0.83333331  0.70789862
   0.50000000  0.16666667  0.70789862
   0.50000000  0.50000000  0.70789862
   0.50000000  0.83333331  0.70789862
   0.83333331  0.16666667  0.70789862
   0.83333331  0.50000000  0.70789862
   0.83333331  0.83333331  0.70789862
   0.16666667  0.00000000  0.54210138
   0.16666667  0.33333334  0.54210138
   0.16666667  0.66666669  0.54210138
   0.50000000  0.00000000  0.54210138
   0.50000000  0.33333334  0.54210138
   0.50000000  0.66666669  0.54210138
   0.83333331  0.00000000  0.54210138
   0.83333331  0.33333334  0.54210138
   0.83333331  0.66666669  0.54210138
   0.00000000  0.00000000  0.79210138
   0.00000000  0.33333334  0.79210138
   0.00000000  0.66666669  0.79210138
   0.33333334  0.00000000  0.79210138
   0.33333334  0.33333334  0.79210138
   0.33333334  0.66666669  0.79210138
   0.66666669  0.00000000  0.79210138
   0.66666669  0.33333334  0.79210138
   0.66666669  0.66666669  0.79210138
   0.16666667  0.00000000  0.95789862
   0.16666667  0.33333334  0.95789862
   0.16666667  0.66666669  0.95789862
   0.50000000  0.00000000  0.95789862
   0.50000000  0.33333334  0.95789862
   0.50000000  0.66666669  0.95789862
   0.83333331  0.00000000  0.95789862
   0.83333331  0.33333334  0.95789862
   0.83333331  0.66666669  0.95789862
   0.00000000  0.00000000  0.20789860
   0.00000000  0.33333334  0.20789860
   0.00000000  0.66666669  0.20789860
   0.33333334  0.00000000  0.20789860
   0.33333334  0.33333334  0.20789860
   0.33333334  0.66666669  0.20789860
   0.66666669  0.00000000  0.20789860
   0.66666669  0.33333334  0.20789860
   0.66666669  0.66666669  0.20789860
   0.00000000  0.16666667  0.04210141
   0.00000000  0.50000000  0.04210141
   0.00000000  0.83333331  0.04210141
   0.33333334  0.16666667  0.04210141
   0.33333334  0.50000000  0.04210141
   0.33333334  0.83333331  0.04210141
   0.66666669  0.16666667  0.04210141
   0.66666669  0.50000000  0.04210141
   0.66666669  0.83333331  0.04210141
   0.16666667  0.16666667  0.29210141
   0.16666667  0.50000000  0.29210141
   0.16666667  0.83333331  0.29210141
   0.50000000  0.16666667  0.29210141
   0.50000000  0.50000000  0.29210141
   0.50000000  0.83333331  0.29210141
   0.83333331  0.16666667  0.29210141
   0.83333331  0.50000000  0.29210141
   0.83333331  0.83333331  0.29210141

 position of ions in cartesian coordinates  (Angst):
   1.89614063  1.89614063  4.80228710
   1.89614063  5.68842173  4.80228710
   1.89614063  9.48070265  4.80228710
   5.68842173  1.89614063  4.80228710
   5.48842173  5.68842173  4.80228710
   5.68842173  9.48070265  4.80228710
   9.48070265  1.89614063  4.80228710
   9.48070265  5.68842173  4.80228710
   9.48070265  9.48070265  4.80228710
   1.89614063  0.00000000  7.20343065
   1.89614063  3.79228126  7.20343065
   1.89614063  7.58456253  7.20343065
   5.68842173  0.00000000  7.20343065
   5.68842173  3.79228126  7.20343065
   5.68842173  7.58456253  7.20343065
   9.48070265  0.00000000  7.20343065
   9.48070265  3.79228126  7.20343065
   9.48070265  7.58456253  7.20343065
   0.00000000  0.00000000  0.00000000
   0.00000000  3.79228126  0.00000000
   0.00000000  7.58456253  0.00000000
   3.79228126  0.00000000  0.00000000
   3.79228126  3.79228126  0.00000000
   3.79228126  7.58456253  0.00000000
   7.58456253  0.00000000  0.00000000
   7.58456253  3.79228126  0.00000000
   7.58456253  7.58456253  0.00000000
   0.00000000  1.89614063  2.40114355
   0.00000000  5.68842173  2.40114355
   0.00000000  9.48070265  2.40114355
   3.79228126  1.89614063  2.40114355
   3.79228126  5.68842173  2.40114355
   3.79228126  9.48070265  2.40114355
   7.58456253  1.89614063  2.40114355
   7.58456253  5.68842173  2.40114355
   7.58456253  9.48070265  2.40114355
   0.00000000  1.89614063  4.39792096
   0.00000000  5.68842173  4.39792096
   0.00000000  9.48070265  4.39792096
   3.79228126  1.89614063  4.39792096
   3.79228126  5.68842173  4.39792096
   3.79228126  9.48070265  4.39792096
   7.58456253  1.89614063  4.39792096
   7.58456253  5.68842173  4.39792096
   7.58456253  9.48070265  4.39792096
   1.89614063  1.89614063  6.79906479
   1.89614063  5.68842173  6.79906479
   1.89614063  9.48070265  6.79906479
   5.68842173  1.89614063  6.79906479
   5.68842173  5.68842173  6.79906479
   5.68842173  9.48070265  6.79906479
   9.48070265  1.89614063  6.79906479
   9.48070265  5.68842173  6.79906479
   9.48070265  9.48070265  6.79906479
   1.89614063  0.00000000  5.20665296
   1.89614063  3.79228126  5.20665296
   1.89614063  7.58456253  5.20665296
   5.68842173  0.00000000  5.20665296
   5.68842173  3.79228126  5.20665296
   5.68842173  7.58456253  5.20665296
   9.48070265  0.00000000  5.20665296
   9.48070265  3.79228126  5.20665296
   9.48070265  7.58456253  5.20665296
   0.00000000  0.00000000  7.60779651
   0.00000000  3.79228126  7.60779651
   0.00000000  7.58456253  7.60779651
   3.79228126  0.00000000  7.60779651
   3.79228126  3.79228126  7.60779651
   3.79228126  7.58456253  7.60779651
   7.58456253  0.00000000  7.60779651
   7.58456253  3.79228126  7.60779651
   7.58456253  7.58456253  7.60779651
   1.89614063  0.00000000  9.20020834
   1.89614063  3.79228126  9.20020834
   1.89614063  7.58456253  9.20020834
   5.68842173  0.00000000  9.20020834
   5.68842173  3.79228126  9.20020834
   5.68842173  7.58456253  9.20020834
   9.48070265  0.00000000  9.20020834
   9.48070265  3.79228126  9.20020834
   9.48070265  7.58456253  9.20020834
   0.00000000  0.00000000  1.99677755
   0.00000000  3.79228126  1.99677755
   0.00000000  7.58456253  1.99677755
   3.79228126  0.00000000  1.99677755
   3.79228126  3.79228126  1.99677755
   3.79228126  7.58456253  1.99677755
   7.58456253  0.00000000  1.99677755
   7.58456253  3.79228126  1.99677755
   7.58456253  7.58456253  1.99677755
   0.00000000  1.89614063  0.40436607
   0.00000000  5.68842173  0.40436607
   0.00000000  9.48070265  0.40436607
   3.79228126  1.89614063  0.40436607
   3.79228126  5.68842173  0.40436607
   3.79228126  9.48070265  0.40436607
   7.58456253  1.89614063  0.40436607
   7.58456253  5.68842173  0.40436607
   7.58456253  9.48070265  0.40436607
   1.89614063  1.89614063  2.80550970
   1.89614063  5.68842173  2.80550970
   1.89614063  9.48070265  2.80550970
   5.68842173  1.89614063  2.80550970
   5.68842173  5.68842173  2.80550970
   5.68842173  9.48070265  2.80550970
   9.48070265  1.89614063  2.80550970
   9.48070265  5.68842173  2.80550970
   9.48070265  9.48070265  2.80550970



--------------------------------------------------------------------------------------------------------


 k-point   1 :   0.2500 0.2500 0.2500  plane waves:   22590
 k-point   2 :  -0.2500 0.2500 0.2500  plane waves:   22590
 k-point   3 :  -0.2500-0.2500 0.2500  plane waves:   22590
 k-point   4 :   0.2500-0.2500 0.2500  plane waves:   22590

 maximum and minimum number of plane-waves per node :     22590    22590

 maximum number of plane-waves:     22590
 maximum index in each direction:
   IXMAX=   18   IYMAX=   18   IZMAX=   15
   IXMIN=  -18   IYMIN=  -18   IZMIN=  -15


 serial   3D FFT for wavefunctions
 parallel 3D FFT for charge:
    minimum data exchange during FFTs selected (reduces bandwidth)


 total amount of memory used by VASP MPI-rank0   266724. kBytes
=======================================================================

   base      :      30000. kBytes
   nonlr-proj:      19555. kBytes
   fftplans  :      10927. kBytes
   grid      :      23181. kBytes
   one-center:       1679. kBytes
   wavefun   :     181382. kBytes

     INWAV:  cpu time      0.0000: real time      0.0003
 Broyden mixing: mesh for mixing (old mesh)
   NGX = 37   NGY = 37   NGZ = 31
  (NGX  =112   NGY  =112   NGZ  = 96)
  gives a total of  42439 points

 initial charge density was supplied:
 charge density of overlapping atoms calculated
 number of electron     792.0000000 magnetization
 keeping initial charge density in first step


--------------------------------------------------------------------------------------------------------


 Maximum index for non-local projection operator         1743
 Maximum index for augmentation-charges         1189 (set IRDMAX)


--------------------------------------------------------------------------------------------------------


 First call to EWALD:  gamma=   0.165
 Maximum number of real-space cells 3x 3x 3
 Maximum number of reciprocal cells 3x 3x 3

    FEWALD:  cpu time      0.0034: real time      0.0035


--------------------------------------- Iteration      1(   1)  ---------------------------------------


    POTLOK:  cpu time      0.2361: real time      0.2400
    SETDIJ:  cpu time      0.0141: real time      0.0152
     EDDAV:  cpu time     16.3460: real time     16.5092
       DOS:  cpu time      0.0033: real time      0.0037
    --------------------------------------------
      LOOP:  cpu time     16.5996: real time     16.7682

 eigenvalue-minimisations  :  3824
 total energy-change (2. order) : 0.1156042E+05  (-0.3305836E+05)
 number of electron     792.0000000 magnetization
 augmentation part      792.0000000 magnetization

 Free energy of the ion-electron system (eV)
  ---------------------------------------------------
  alpha Z        PSCENC =      3563.47650690
  Ewald energy   TEWEN  =    -48582.67992672
  -Hartree energ DENC   =    -18845.50372269
  -exchange      EXHF   =         0.00000000
  -V(xc)+E(xc)   XCENC  =      3286.91405853
  PAW double counting   =     54431.09303398   -54537.79254336
  entropy T*S    EENTRO =        -0.13859878
  eigenvalues    EBANDS =      3588.64703905
  atomic energy  EATOM  =     68656.39924158
  Solvation  Ediel_sol  =         0.00000000
  ---------------------------------------------------
  free energy    TOTEN  =     11560.41508849 eV

  energy without entropy =    11560.55368728  energy(sigma->0) =    11560.48438788


--------------------------------------------------------------------------------------------------------




--------------------------------------- Iteration      1(   2)  ---------------------------------------


     EDDAV:  cpu time     16.2894: real time     16.4010
       DOS:  cpu time      0.0009: real time      0.0009
    --------------------------------------------
      LOOP:  cpu time     16.2902: real time     16.4019

 eigenvalue-minimisations  :  3808
 total energy-change (2. order) :-0.9987381E+04  (-0.9557222E+04)
 number of electron     792.0000000 magnetization
 augmentation part      792.0000000 magnetization

 Free energy of the ion-electron system (eV)
  ---------------------------------------------------
  alpha Z        PSCENC =      3563.47650690
  Ewald energy   TEWEN  =    -48582.67992672
  -Hartree energ DENC   =    -18845.50372269
  -exchange      EXHF   =         0.00000000
  -V(xc)+E(xc)   XCENC  =      3286.91405853
  PAW double counting   =     54431.09303398   -54537.79254336
  entropy T*S    EENTRO =        -0.29819175
  eigenvalues    EBANDS =     -6398.57452258
  atomic energy  EATOM  =     68656.39924158
  Solvation  Ediel_sol  =         0.00000000
  ---------------------------------------------------
  free energy    TOTEN  =      1573.03393390 eV

  energy without entropy =     1573.33212565  energy(sigma->0) =     1573.18302978


--------------------------------------------------------------------------------------------------------




--------------------------------------- Iteration      1(   3)  ---------------------------------------


     EDDAV:  cpu time     18.3726: real time     18.5053
       DOS:  cpu time      0.0006: real time      0.0006
    --------------------------------------------
      LOOP:  cpu time     18.3733: real time     18.5059

 eigenvalue-minimisations  :  4424
 total energy-change (2. order) :-0.2642518E+04  (-0.2569758E+04)
 number of electron     792.0000000 magnetization
 augmentation part      792.0000000 magnetization

 Free energy of the ion-electron system (eV)
  ---------------------------------------------------
  alpha Z        PSCENC =      3563.47650690
  Ewald energy   TEWEN  =    -48582.67992672
  -Hartree energ DENC   =    -18845.50372269
  -exchange      EXHF   =         0.00000000
  -V(xc)+E(xc)   XCENC  =      3286.91405853
  PAW double counting   =     54431.09303398   -54537.79254336
  entropy T*S    EENTRO =        -0.00000000
  eigenvalues    EBANDS =     -9041.39058907
  atomic energy  EATOM  =     68656.39924158
  Solvation  Ediel_sol  =         0.00000000
  ---------------------------------------------------
  free energy    TOTEN  =     -1069.48394084 eV

  energy without entropy =    -1069.48394084  energy(sigma->0) =    -1069.48394084


--------------------------------------------------------------------------------------------------------




--------------------------------------- Iteration      1(   4)  ---------------------------------------


     EDDAV:  cpu time     20.9603: real time     21.1016
       DOS:  cpu time      0.0006: real time      0.0006
    --------------------------------------------
      LOOP:  cpu time     20.9609: real time     21.1023

 eigenvalue-minimisations  :  5072
 total energy-change (2. order) :-0.2038539E+03  (-0.2028655E+03)
 number of electron     792.0000000 magnetization
 augmentation part      792.0000000 magnetization

 Free energy of the ion-electron system (eV)
  ---------------------------------------------------
  alpha Z        PSCENC =      3563.47650690
  Ewald energy   TEWEN  =    -48582.67992672
  -Hartree energ DENC   =    -18845.50372269
  -exchange      EXHF   =         0.00000000
  -V(xc)+E(xc)   XCENC  =      3286.91405853
  PAW double counting   =     54431.09303398   -54537.79254336
  entropy T*S    EENTRO =        -0.00000000
  eigenvalues    EBANDS =     -9245.24446290
  atomic energy  EATOM  =     68656.39924158
  Solvation  Ediel_sol  =         0.00000000
  ---------------------------------------------------
  free energy    TOTEN  =     -1273.33781467 eV

  energy without entropy =    -1273.33781467  energy(sigma->0) =    -1273.33781467


--------------------------------------------------------------------------------------------------------




--------------------------------------- Iteration      1(   5)  ---------------------------------------


     EDDAV:  cpu time     20.5083: real time     20.6460
       DOS:  cpu time      0.0006: real time      0.0006
    CHARGE:  cpu time      0.2384: real time      0.2412
    MIXING:  cpu time      0.0151: real time      0.0153
    --------------------------------------------
      LOOP:  cpu time     20.7625: real time     20.9030

 eigenvalue-minimisations  :  4976
 total energy-change (2. order) :-0.4886319E+01  (-0.4877243E+01)
 number of electron     792.0003053 magnetization
 augmentation part      202.2549178 magnetization

 Broyden mixing:
  rms(total) = 0.17276E+02    rms(broyden)= 0.17274E+02
  rms(prec ) = 0.19209E+02
  weight for this iteration     100.00

 Free energy of the ion-electron system (eV)
  ---------------------------------------------------
  alpha Z        PSCENC =      3563.47650690
  Ewald energy   TEWEN  =    -48582.67992672
  -Hartree energ DENC   =    -18845.50372269
  -exchange      EXHF   =         0.00000000
  -V(xc)+E(xc)   XCENC  =      3286.91405853
  PAW double counting   =     54431.09303398   -54537.79254336
  entropy T*S    EENTRO =        -0.00000000
  eigenvalues    EBANDS =     -9250.13078165
  atomic energy  EATOM  =     68656.39924158
  Solvation  Ediel_sol  =         0.00000000
  ---------------------------------------------------
  free energy    TOTEN  =     -1278.22413343 eV

  energy without entropy =    -1278.22413343  energy(sigma->0) =    -1278.22413343


--------------------------------------------------------------------------------------------------------




--------------------------------------- Iteration      1(   6)  ---------------------------------------


    POTLOK:  cpu time      0.2277: real time      0.2295
    SETDIJ:  cpu time      0.0183: real time      0.0185
     EDDAV:  cpu time     20.3108: real time     20.4520
       DOS:  cpu time      0.0009: real time      0.0009
    CHARGE:  cpu time      0.2396: real time      0.2440
    MIXING:  cpu time      0.0143: real time      0.0187
    --------------------------------------------
      LOOP:  cpu time     20.8116: real time     20.9637

 eigenvalue-minimisations  :  4976
 total energy-change (2. order) : 0.3023421E+03  (-0.1973335E+03)
 number of electron     792.0002456 magnetization
 augmentation part      214.1534924 magnetization

 Broyden mixing:
  rms(total) = 0.53241E+01    rms(broyden)= 0.53192E+01
  rms(prec ) = 0.58507E+01
  weight for this iteration     100.00

 eigenvalues of (default mixing * dielectric matrix)
  average eigenvalue GAMMA=   0.9665
  0.9665

 Free energy of the ion-electron system (eV)
  ---------------------------------------------------
  alpha Z        PSCENC =      3563.47650690
  Ewald energy   TEWEN  =    -48582.67992672
  -Hartree energ DENC   =    -19070.63987489
  -exchange      EXHF   =         0.00000000
  -V(xc)+E(xc)   XCENC  =      3337.95215850
  PAW double counting   =     68291.95282753   -68524.26369776
  entropy T*S    EENTRO =        -0.00000000
  eigenvalues    EBANDS =     -8648.07928443
  atomic energy  EATOM  =     68656.39924158
  Solvation  Ediel_sol  =         0.00000000
  ---------------------------------------------------
  free energy    TOTEN  =      -975.88204929 eV

  energy without entropy =     -975.88204929  energy(sigma->0) =     -975.88204929


--------------------------------------------------------------------------------------------------------




--------------------------------------- Iteration      1(   7)  ---------------------------------------


    POTLOK:  cpu time      0.2223: real time      0.2240
    SETDIJ:  cpu time      0.0175: real time      0.0176
     EDDAV:  cpu time     21.6054: real time     21.7523
       DOS:  cpu time      0.0008: real time      0.0008
    CHARGE:  cpu time      0.2377: real time      0.2401
    MIXING:  cpu time      0.0143: real time      0.0144
    --------------------------------------------
      LOOP:  cpu time     22.0980: real time     22.2492

 eigenvalue-minimisations  :  5328
 total energy-change (2. order) : 0.4130770E+01  (-0.2877313E+02)
 number of electron     792.0002649 magnetization
 augmentation part      207.3357913 magnetization

 Broyden mixing:
  rms(total) = 0.46129E+01    rms(broyden)= 0.46127E+01
  rms(prec ) = 0.48060E+01
  weight for this iteration     100.00

 eigenvalues of (default mixing * dielectric matrix)
  average eigenvalue GAMMA=   1.8415
  0.7375  2.9454

 Free energy of the ion-electron system (eV)
  ---------------------------------------------------
  alpha Z        PSCENC =      3563.47650690
  Ewald energy   TEWEN  =    -48582.67992672
  -Hartree energ DENC   =    -18915.24482031
  -exchange      EXHF   =         0.00000000
  -V(xc)+E(xc)   XCENC  =      3318.80957129
  PAW double counting   =     75325.50410836   -75568.78718409
  entropy T*S    EENTRO =        -0.00000000
  eigenvalues    EBANDS =     -8769.22877654
  atomic energy  EATOM  =     68656.39924158
  Solvation  Ediel_sol  =         0.00000000
  ---------------------------------------------------
  free energy    TOTEN  =      -971.75127953 eV

  energy without entropy =     -971.75127953  energy(sigma->0) =     -971.75127953


--------------------------------------------------------------------------------------------------------




--------------------------------------- Iteration      1(   8)  ---------------------------------------


    POTLOK:  cpu time      0.2264: real time      0.2283
    SETDIJ:  cpu time      0.0166: real time      0.0166
     EDDAV:  cpu time     20.4366: real time     20.5720
       DOS:  cpu time      0.0008: real time      0.0008
    CHARGE:  cpu time      0.2391: real time      0.2415
    MIXING:  cpu time      0.0144: real time      0.0146
    --------------------------------------------
      LOOP:  cpu time     20.9338: real time     21.0739

 eigenvalue-minimisations  :  5008
 total energy-change (2. order) : 0.3566710E-01  (-0.1096024E+02)
 number of electron     792.0002583 magnetization
 augmentation part      215.5437043 magnetization

 Broyden mixing:
  rms(total) = 0.33464E+01    rms(broyden)= 0.33462E+01
  rms(prec ) = 0.36432E+01
  weight for this iteration     100.00

 eigenvalues of (default mixing * dielectric matrix)
  average eigenvalue GAMMA=   1.2328
  2.1654  0.9323  0.6006

 Free energy of the ion-electron system (eV)
  ---------------------------------------------------
  alpha Z        PSCENC =      3563.47650690
  Ewald energy   TEWEN  =    -48582.67992672
  -Hartree energ DENC   =    -18538.72108854
  -exchange      EXHF   =         0.00000000
  -V(xc)+E(xc)   XCENC  =      3304.04744577
  PAW double counting   =     93947.07983108   -94262.39704638
  entropy T*S    EENTRO =        -0.00000000
  eigenvalues    EBANDS =     -9058.92057612
  atomic energy  EATOM  =     68656.39924158
  Solvation  Ediel_sol  =         0.00000000
  ---------------------------------------------------
  free energy    TOTEN  =      -971.71561243 eV

  energy without entropy =     -971.71561243  energy(sigma->0) =     -971.71561243


--------------------------------------------------------------------------------------------------------




--------------------------------------- Iteration      1(   9)  ---------------------------------------


    POTLOK:  cpu time      0.2288: real time      0.2311
    SETDIJ:  cpu time      0.0105: real time      0.0106
     EDDAV:  cpu time     20.8258: real time     20.9674
       DOS:  cpu time      0.0008: real time      0.0008
    CHARGE:  cpu time      0.2393: real time      0.2420
    MIXING:  cpu time      0.0154: real time      0.0155
    --------------------------------------------
      LOOP:  cpu time     21.3206: real time     21.4673

 eigenvalue-minimisations  :  5120
 total energy-change (2. order) : 0.5470799E+01  (-0.3429121E+01)
 number of electron     792.0002631 magnetization
 augmentation part      211.4731814 magnetization

 Broyden mixing:
  rms(total) = 0.26477E+00    rms(broyden)= 0.26404E+00
  rms(prec ) = 0.29177E+00
  weight for this iteration     100.00

 eigenvalues of (default mixing * dielectric matrix)
  average eigenvalue GAMMA=   1.1225
  2.1749  0.8343  0.8343  0.6463

 Free energy of the ion-electron system (eV)
  ---------------------------------------------------
  alpha Z        PSCENC =      3563.47650690
  Ewald energy   TEWEN  =    -48582.67992672
  -Hartree energ DENC   =    -18683.02159630
  -exchange      EXHF   =         0.00000000
  -V(xc)+E(xc)   XCENC  =      3308.94125784
  PAW double counting   =     88687.50336022   -88983.71659128
  entropy T*S    EENTRO =        -0.00000000
  eigenvalues    EBANDS =     -8933.14706535
  atomic energy  EATOM  =     68656.39924158
  Solvation  Ediel_sol  =         0.00000000
  ---------------------------------------------------
  free energy    TOTEN  =      -966.24481310 eV

  energy without entropy =     -966.24481310  energy(sigma->0) =     -966.24481310


--------------------------------------------------------------------------------------------------------




--------------------------------------- Iteration      1(  10)  ---------------------------------------


    POTLOK:  cpu time      0.2312: real time      0.2334
    SETDIJ:  cpu time      0.0092: real time      0.0093
     EDDAV:  cpu time     21.2428: real time     21.3895
       DOS:  cpu time      0.0007: real time      0.0007
    CHARGE:  cpu time      0.2382: real time      0.2407
    MIXING:  cpu time      0.0150: real time      0.0152
    --------------------------------------------
      LOOP:  cpu time     21.7372: real time     21.8887

 eigenvalue-minimisations  :  5248
 total energy-change (2. order) :-0.3557104E-01  (-0.8354994E-01)
 number of electron     792.0002625 magnetization
 augmentation part      211.5150710 magnetization

 Broyden mixing:
  rms(total) = 0.20992E+00    rms(broyden)= 0.20986E+00
  rms(prec ) = 0.22667E+00
  weight for this iteration     100.00

 eigenvalues of (default mixing * dielectric matrix)
  average eigenvalue GAMMA=   1.2857
  2.4565  1.7288  1.0642  0.6531  0.5261

 Free energy of the ion-electron system (eV)
  ---------------------------------------------------
  alpha Z        PSCENC =      3563.47650690
  Ewald energy   TEWEN  =    -48582.67992672
  -Hartree energ DENC   =    -18705.04304537
  -exchange      EXHF   =         0.00000000
  -V(xc)+E(xc)   XCENC  =      3310.53862428
  PAW double counting   =     88879.29084499   -89177.80173531
  entropy T*S    EENTRO =        -0.00000000
  eigenvalues    EBANDS =     -8910.46089448
  atomic energy  EATOM  =     68656.39924158
  Solvation  Ediel_sol  =         0.00000000
  ---------------------------------------------------
  free energy    TOTEN  =      -966.28038414 eV

  energy without entropy =     -966.28038414  energy(sigma->0) =     -966.28038414


--------------------------------------------------------------------------------------------------------




--------------------------------------- Iteration      1(  11)  ---------------------------------------


    POTLOK:  cpu time      0.2260: real time      0.2281
    SETDIJ:  cpu time      0.0152: real time      0.0153
     EDDAV:  cpu time     18.6513: real time     18.7781
       DOS:  cpu time      0.0009: real time      0.0009
    CHARGE:  cpu time      0.2401: real time      0.2413
    MIXING:  cpu time      0.0165: real time      0.0166
    --------------------------------------------
      LOOP:  cpu time     19.1499: real time     19.2803

 eigenvalue-minimisations  :  4480
 total energy-change (2. order) :-0.6175372E-01  (-0.4634382E-01)
 number of electron     792.0002616 magnetization
 augmentation part      211.4961072 magnetization

 Broyden mixing:
  rms(total) = 0.21596E+00    rms(broyden)= 0.21593E+00
  rms(prec ) = 0.26055E+00
  weight for this iteration     100.00

 eigenvalues of (default mixing * dielectric matrix)
  average eigenvalue GAMMA=   1.2642
  2.5277  1.8353  1.0208  1.0208  0.5903  0.5903

 Free energy of the ion-electron system (eV)
  ---------------------------------------------------
  alpha Z        PSCENC =      3563.47650690
  Ewald energy   TEWEN  =    -48582.67992672
  -Hartree energ DENC   =    -18745.85084919
  -exchange      EXHF   =         0.00000000
  -V(xc)+E(xc)   XCENC  =      3313.38842701
  PAW double counting   =     89291.47427723   -89594.07829989
  entropy T*S    EENTRO =        -0.00000000
  eigenvalues    EBANDS =     -8868.47151478
  atomic energy  EATOM  =     68656.39924158
  Solvation  Ediel_sol  =         0.00000000
  ---------------------------------------------------
  free energy    TOTEN  =      -966.34213786 eV

  energy without entropy =     -966.34213786  energy(sigma->0) =     -966.34213786


--------------------------------------------------------------------------------------------------------




--------------------------------------- Iteration      1(  12)  ---------------------------------------


    POTLOK:  cpu time      0.2101: real time      0.2122
    SETDIJ:  cpu time      0.0245: real time      0.0246
     EDDAV:  cpu time     21.3661: real time     21.5069
       DOS:  cpu time      0.0010: real time      0.0010
    CHARGE:  cpu time      0.2361: real time      0.2373
    MIXING:  cpu time      0.0168: real time      0.0170
    --------------------------------------------
      LOOP:  cpu time     21.8546: real time     21.9989

 eigenvalue-minimisations  :  5264
 total energy-change (2. order) : 0.5477838E-01  (-0.5112164E-01)
 number of electron     792.0002625 magnetization
 augmentation part      211.1873627 magnetization

 Broyden mixing:
  rms(total) = 0.57276E-01    rms(broyden)= 0.57161E-01
  rms(prec ) = 0.66813E-01
  weight for this iteration     100.00

 eigenvalues of (default mixing * dielectric matrix)
  average eigenvalue GAMMA=   1.2356
  2.5893  1.5500  1.5500  0.9867  0.8097  0.5819  0.5819

 Free energy of the ion-electron system (eV)
  ---------------------------------------------------
  alpha Z        PSCENC =      3563.47650690
  Ewald energy   TEWEN  =    -48582.67992672
  -Hartree energ DENC   =    -18742.54808131
  -exchange      EXHF   =         0.00000000
  -V(xc)+E(xc)   XCENC  =      3312.71949402
  PAW double counting   =     89327.83212670   -89629.62069757
  entropy T*S    EENTRO =        -0.00000000
  eigenvalues    EBANDS =     -8871.86602308
  atomic energy  EATOM  =     68656.39924158
  Solvation  Ediel_sol  =         0.00000000
  ---------------------------------------------------
  free energy    TOTEN  =      -966.28735948 eV

  energy without entropy =     -966.28735948  energy(sigma->0) =     -966.28735948


--------------------------------------------------------------------------------------------------------




--------------------------------------- Iteration      1(  13)  ---------------------------------------


    POTLOK:  cpu time      0.2213: real time      0.2234
    SETDIJ:  cpu time      0.0197: real time      0.0197
     EDDAV:  cpu time     21.5125: real time     21.6547
       DOS:  cpu time      0.0039: real time      0.0039
    CHARGE:  cpu time      0.2387: real time      0.2400
    MIXING:  cpu time      0.0166: real time      0.0167
    --------------------------------------------
      LOOP:  cpu time     22.0127: real time     22.1584

 eigenvalue-minimisations  :  5296
 total energy-change (2. order) : 0.1275579E-02  (-0.2111935E-02)
 number of electron     792.0002624 magnetization
 augmentation part      211.2414874 magnetization

 Broyden mixing:
  rms(total) = 0.21191E-01    rms(broyden)= 0.21181E-01
  rms(prec ) = 0.25287E-01
  weight for this iteration     100.00

 eigenvalues of (default mixing * dielectric matrix)
  average eigenvalue GAMMA=   1.1967
  2.6030  1.7181  1.7181  0.9483  0.7137  0.7137  0.6099  0.5485

 Free energy of the ion-electron system (eV)
  ---------------------------------------------------
  alpha Z        PSCENC =      3563.47650690
  Ewald energy   TEWEN  =    -48582.67992672
  -Hartree energ DENC   =    -18742.58694062
  -exchange      EXHF   =         0.00000000
  -V(xc)+E(xc)   XCENC  =      3312.77240042
  PAW double counting   =     89367.35674690   -89669.16551439
  entropy T*S    EENTRO =        -0.00000000
  eigenvalues    EBANDS =     -8871.85859797
  atomic energy  EATOM  =     68656.39924158
  Solvation  Ediel_sol  =         0.00000000
  ---------------------------------------------------
  free energy    TOTEN  =      -966.28608391 eV

  energy without entropy =     -966.28608391  energy(sigma->0) =     -966.28608391


--------------------------------------------------------------------------------------------------------




--------------------------------------- Iteration      1(  14)  ---------------------------------------


    POTLOK:  cpu time      0.2224: real time      0.2246
    SETDIJ:  cpu time      0.0161: real time      0.0162
     EDDAV:  cpu time     21.7103: real time     21.8539
       DOS:  cpu time      0.0035: real time      0.0035
    CHARGE:  cpu time      0.2343: real time      0.2355
    MIXING:  cpu time      0.0176: real time      0.0178
    --------------------------------------------
      LOOP:  cpu time     22.2041: real time     22.3515

 eigenvalue-minimisations  :  5344
 total energy-change (2. order) : 0.1939236E-03  (-0.1343367E-03)
 number of electron     792.0002623 magnetization
 augmentation part      211.2475490 magnetization

 Broyden mixing:
  rms(total) = 0.11898E-01    rms(broyden)= 0.11897E-01
  rms(prec ) = 0.13970E-01
  weight for this iteration     100.00

 eigenvalues of (default mixing * dielectric matrix)
  average eigenvalue GAMMA=   1.2370
  2.5610  1.8550  1.8550  1.0746  0.9945  0.9945  0.5730  0.5730  0.6524

 Free energy of the ion-electron system (eV)
  ---------------------------------------------------
  alpha Z        PSCENC =      3563.47650690
  Ewald energy   TEWEN  =    -48582.67992672
  -Hartree energ DENC   =    -18743.63625182
  -exchange      EXHF   =         0.00000000
  -V(xc)+E(xc)   XCENC  =      3312.84084591
  PAW double counting   =     89359.95578081   -89661.67568591
  entropy T*S    EENTRO =        -0.00000000
  eigenvalues    EBANDS =     -8870.96640074
  atomic energy  EATOM  =     68656.39924158
  Solvation  Ediel_sol  =         0.00000000
  ---------------------------------------------------
  free energy    TOTEN  =      -966.28588998 eV

  energy without entropy =     -966.28588998  energy(sigma->0) =     -966.28588998


--------------------------------------------------------------------------------------------------------




--------------------------------------- Iteration      1(  15)  ---------------------------------------


    POTLOK:  cpu time      0.2208: real time      0.2228
    SETDIJ:  cpu time      0.0191: real time      0.0192
     EDDAV:  cpu time     21.5522: real time     21.6920
       DOS:  cpu time      0.0010: real time      0.0010
    CHARGE:  cpu time      0.2383: real time      0.2404
    MIXING:  cpu time      0.0191: real time      0.0193
    --------------------------------------------
      LOOP:  cpu time     22.0504: real time     22.1946

 eigenvalue-minimisations  :  5312
 total energy-change (2. order) :-0.1341273E-03  (-0.9647525E-04)
 number of electron     792.0002623 magnetization
 augmentation part      211.2389834 magnetization

 Broyden mixing:
  rms(total) = 0.10462E-01    rms(broyden)= 0.10459E-01
  rms(prec ) = 0.12570E-01
  weight for this iteration     100.00

 eigenvalues of (default mixing * dielectric matrix)
  average eigenvalue GAMMA=   1.2348
  2.6949  2.1577  2.1577  0.9072  0.9072  0.9058  0.9058  0.5848  0.5848  0.5421

 Free energy of the ion-electron system (eV)
  ---------------------------------------------------
  alpha Z        PSCENC =      3563.47650690
  Ewald energy   TEWEN  =    -48582.67992672
  -Hartree energ DENC   =    -18744.85685743
  -exchange      EXHF   =         0.00000000
  -V(xc)+E(xc)   XCENC  =      3312.89664304
  PAW double counting   =     89338.51362922   -89640.03795332
  entropy T*S    EENTRO =        -0.00000000
  eigenvalues    EBANDS =     -8869.99730738
  atomic energy  EATOM  =     68656.39924158
  Solvation  Ediel_sol  =         0.00000000
  ---------------------------------------------------
  free energy    TOTEN  =      -966.28602411 eV

  energy without entropy =     -966.28602411  energy(sigma->0) =     -966.28602411


--------------------------------------------------------------------------------------------------------




--------------------------------------- Iteration      1(  16)  ---------------------------------------


    POTLOK:  cpu time      0.2274: real time      0.2293
    SETDIJ:  cpu time      0.0147: real time      0.0149
     EDDAV:  cpu time     19.9644: real time     20.1019
       DOS:  cpu time      0.0006: real time      0.0006
    CHARGE:  cpu time      0.2320: real time      0.2331
    MIXING:  cpu time      0.0154: real time      0.0155
    --------------------------------------------
      LOOP:  cpu time     20.4545: real time     20.5952

 eigenvalue-minimisations  :  5256
 total energy-change (2. order) : 0.5962976E-04  (-0.1348375E-03)
 number of electron     792.0002623 magnetization
 augmentation part      211.2558851 magnetization

 Broyden mixing:
  rms(total) = 0.52097E-02    rms(broyden)= 0.52061E-02
  rms(prec ) = 0.59279E-02
  weight for this iteration     100.00

 eigenvalues of (default mixing * dielectric matrix)
  average eigenvalue GAMMA=   1.2096
  2.7379  2.4385  1.9083  0.8526  0.8526  0.9607  0.9607  0.8611  0.5823  0.5823
  0.5691

 Free energy of the ion-electron system (eV)
  ---------------------------------------------------
  alpha Z        PSCENC =      3563.47650690
  Ewald energy   TEWEN  =    -48582.67992672
  -Hartree energ DENC   =    -18745.42903326
  -exchange      EXHF   =         0.00000000
  -V(xc)+E(xc)   XCENC  =      3312.94376338
  PAW double counting   =     89339.88186803   -89641.36640581
  entropy T*S    EENTRO =        -0.00000000
  eigenvalues    EBANDS =     -8869.51197858
  atomic energy  EATOM  =     68656.39924158
  Solvation  Ediel_sol  =         0.00000000
  ---------------------------------------------------
  free energy    TOTEN  =      -966.28596448 eV

  energy without entropy =     -966.28596448  energy(sigma->0) =     -966.28596448


--------------------------------------------------------------------------------------------------------




--------------------------------------- Iteration      1(  17)  ---------------------------------------


    POTLOK:  cpu time      0.2001: real time      0.2019
    SETDIJ:  cpu time      0.0092: real time      0.0113
     EDDAV:  cpu time     18.3144: real time     18.4457
       DOS:  cpu time      0.0006: real time      0.0006
    CHARGE:  cpu time      0.2395: real time      0.2412
    MIXING:  cpu time      0.0157: real time      0.0158
    --------------------------------------------
      LOOP:  cpu time     18.7795: real time     18.9165

 eigenvalue-minimisations  :  5328
 total energy-change (2. order) : 0.9657553E-05  (-0.1509818E-04)
 number of electron     792.0002623 magnetization
 augmentation part      211.2521130 magnetization

 Broyden mixing:
  rms(total) = 0.21301E-02    rms(broyden)= 0.21282E-02
  rms(prec ) = 0.25839E-02
  weight for this iteration     100.00

 eigenvalues of (default mixing * dielectric matrix)
  average eigenvalue GAMMA=   1.1794
  2.8517  2.4491  1.8504  1.0509  1.0509  0.9078  0.9078  0.6812  0.6812  0.6098
  0.5720  0.5405

 Free energy of the ion-electron system (eV)
  ---------------------------------------------------
  alpha Z        PSCENC =      3563.47650690
  Ewald energy   TEWEN  =    -48582.67992672
  -Hartree energ DENC   =    -18745.75980284
  -exchange      EXHF   =         0.00000000
  -V(xc)+E(xc)   XCENC  =      3312.95897814
  PAW double counting   =     89334.59749271   -89636.06395202
  entropy T*S    EENTRO =        -0.00000000
  eigenvalues    EBANDS =     -8869.21449257
  atomic energy  EATOM  =     68656.39924158
  Solvation  Ediel_sol  =         0.00000000
  ---------------------------------------------------
  free energy    TOTEN  =      -966.28595482 eV

  energy without entropy =     -966.28595482  energy(sigma->0) =     -966.28595482


--------------------------------------------------------------------------------------------------------




--------------------------------------- Iteration      1(  18)  ---------------------------------------


    POTLOK:  cpu time      0.1989: real time      0.2009
    SETDIJ:  cpu time      0.0139: real time      0.0143
     EDDAV:  cpu time     18.0556: real time     18.1775
       DOS:  cpu time      0.0006: real time      0.0006
    CHARGE:  cpu time      0.2453: real time      0.2465
    MIXING:  cpu time      0.0164: real time      0.0165
    --------------------------------------------
      LOOP:  cpu time     18.5306: real time     18.6562

 eigenvalue-minimisations  :  5048
 total energy-change (2. order) :-0.2009692E-05  (-0.1862841E-05)
 number of electron     792.0002623 magnetization
 augmentation part      211.2523059 magnetization

 Broyden mixing:
  rms(total) = 0.21673E-02    rms(broyden)= 0.21672E-02
  rms(prec ) = 0.26269E-02
  weight for this iteration     100.00

 eigenvalues of (default mixing * dielectric matrix)
  average eigenvalue GAMMA=   1.1878
  2.9500  2.4349  1.7859  1.3517  1.1150  0.9303  0.9303  0.7953  0.7953  0.6818
  0.5717  0.5717  0.5269

 Free energy of the ion-electron system (eV)
  ---------------------------------------------------
  alpha Z        PSCENC =      3563.47650690
  Ewald energy   TEWEN  =    -48582.67992672
  -Hartree energ DENC   =    -18745.84250691
  -exchange      EXHF   =         0.00000000
  -V(xc)+E(xc)   XCENC  =      3312.96267671
  PAW double counting   =     89334.14817617   -89635.61483167
[...]
      7.58456      3.79228      1.99678     0.00565 -0.02874 -2.89259 ( -0.63475  6.00000)
      7.58456      7.58456      1.99678     0.00565  0.02873 -2.89258 ( -0.63475  6.00000)
      0.00000      1.89614      0.40437     0.00188  0.00038 -2.89432 ( -0.63483  6.00000)
      0.00000      5.68842      0.40437     0.00341  0.00002 -2.89206 ( -0.63480  6.00000)
      0.00000      9.48070      0.40437     0.00187 -0.00039 -2.89431 ( -0.63483  6.00000)
      3.79228      1.89614      0.40437    -0.00157  0.01276 -2.89878 ( -0.63482  6.00000)
      3.79228      5.68842      0.40437    -0.00089 -0.00001 -2.83793 ( -0.63447  6.00000)
      3.79228      9.48070      0.40437    -0.00157 -0.01277 -2.89879 ( -0.63482  6.00000)
      7.58456      1.89614      0.40437    -0.00022 -0.01125 -2.88917 ( -0.63487  6.00000)
      7.58456      5.68842      0.40437     0.00215  0.00000 -2.91717 ( -0.63502  6.00000)
      7.58456      9.48070      0.40437    -0.00021  0.01124 -2.88917 ( -0.63486  6.00000)
      1.89614      1.89614      2.80551     0.00088  0.00108 -2.89373 ( -0.63486  6.00000)
      1.89614      5.68842      2.80551     0.04960  0.00001 -2.95430 ( -0.63470  6.00000)
      1.89614      9.48070      2.80551     0.00091 -0.00109 -2.89371 ( -0.63485  6.00000)
      5.68842      1.89614      2.80551    -0.00679  0.00001 -2.89635 ( -0.63482  6.00000)
      5.68842      5.68842      2.80551    -0.03790  0.00002 -2.84443 ( -0.63379  6.00000)
      5.68842      9.48070      2.80551    -0.00681 -0.00001 -2.89635 ( -0.63482  6.00000)
      9.48070      1.89614      2.80551     0.00545  0.00029 -2.89378 ( -0.63483  6.00000)
      9.48070      5.68842      2.80551     0.04013  0.00002 -2.81521 ( -0.63484  6.00000)
      9.48070      9.48070      2.80551     0.00545 -0.00028 -2.89380 ( -0.63483  6.00000)
 -----------------------------------------------------------------------------------------
    total drift (improves with k-points):   0.00060  0.00010 -0.07322




--------------------------------------------------------------------------------------------------------




 MACROSCOPIC STATIC DIELECTRIC TENSOR (including local field effects in DFT)
 ------------------------------------------------------
           6.942517    -0.000010     0.043896
          -0.000009     6.957272    -0.000005
           0.043898    -0.000003     6.369097
 ------------------------------------------------------



--------------------------------------------------------------------------------------------------------




--------------------------------------------------------------------------------------------------------




 MACROSCOPIC STATIC DIELECTRIC TENSOR (including local field effects in DFT)
 ------------------------------------------------------
           6.942517    -0.000010     0.043896
          -0.000009     6.957272    -0.000005
           0.043898    -0.000003     6.369097
 ------------------------------------------------------


 PIEZOELECTRIC TENSOR (including local field effects)  for field in x, y, z        (e  Angst)
          XX          YY          ZZ          XY          YZ          ZX
  --------------------------------------------------------------------------------
  x    -0.08020    -1.04502    -1.73327     0.00004    -0.00025    -0.26372
  y     0.00047    -0.00120     0.00074    -0.86956     0.09257     0.00012
  z    -0.18673    -0.19215     0.07081    -0.00006    -0.00018     0.01749

 PIEZOELECTRIC TENSOR (including local field effects)  for field in x, y, z        (C/m^2)
          XX          YY          ZZ          XY          YZ          ZX
  --------------------------------------------------------------------------------
  x    -0.00103    -0.01347    -0.02234     0.00000    -0.00000    -0.00340
  y     0.00001    -0.00002     0.00001    -0.01121     0.00119     0.00000
  z    -0.00241    -0.00248     0.00091    -0.00000    -0.00000     0.00023

 BORN EFFECTIVE CHARGES (including local field effects) (in |e|, cummulative output)
 ---------------------------------------------------------------------------------
 ion    1
    1     6.64916    -0.03979    -0.03747
    2    -0.00467     6.67806     0.00681
    3     0.01232    -0.01024     5.80185
 ion    2
    1     6.42967     0.00001    -0.03800
    2     0.00001     6.70722    -0.00001
    3     0.52853    -0.00000     5.83040
 ion    3
    1     6.64915     0.03973    -0.03743
    2     0.00465     6.67810    -0.00683
    3     0.01229     0.01030     5.80187
 ion    4
    1     6.66902    -0.05870    -0.00757
    2     0.00210     6.62730    -0.00410
    3    -0.00773     0.02274     5.78848
 ion    5
    1     6.34539     0.00001     0.62948
    2    -0.00006     6.40986    -0.00007
    3     0.66787    -0.00001     5.64114
 ion    6
    1     6.66899     0.05871    -0.00761
    2    -0.00215     6.62726     0.00402
    3    -0.00773    -0.02274     5.78847
 ion    7
    1     6.64885    -0.00340    -0.02736
    2     0.00459     6.63541    -0.00610
    3     0.00508    -0.00684     5.77082
 ion    8
    1     6.44206    -0.00002    -0.09948
    2     0.00002     6.59246    -0.00004
    3     0.54815    -0.00003     5.73814
 ion    9
    1     6.64885     0.00339    -0.02736
    2    -0.00458     6.63541     0.00603
    3     0.00508     0.00684     5.77083
 ion   10
    1     6.65570    -0.00000     0.02619
    2     0.00001     6.65496     0.00001
    3     0.00250     0.00003     5.78988
 ion   11
    1     6.64872    -0.02025     0.06027
    2     0.00010     6.60717    -0.05903
    3     0.01177     0.00101     5.74774
 ion   12
    1     6.64874     0.02026     0.06030
    2    -0.00009     6.60715     0.05904
    3     0.01176    -0.00098     5.74774
 ion   13
    1     6.66094    -0.00001     0.00342
    2     0.00007     6.65424    -0.00006
    3     0.00107    -0.00002     5.77990
 ion   14
    1     6.65916    -0.07186     0.05045
    2     0.00162     6.68232     0.04064
    3     0.00109     0.04070     5.76442
 ion   15
    1     6.65911     0.07181     0.05050
    2    -0.00165     6.68236    -0.04072
    3     0.00112    -0.04066     5.76445
 ion   16
    1     6.65689    -0.00002     0.01734
    2    -0.00000     6.66252    -0.00002
    3    -0.00307     0.00003     5.78750
 ion   17
    1     6.64807    -0.00605     0.02723
    2     0.00072     6.70923     0.05815
    3    -0.01400    -0.00442     5.83688
 ion   18
    1     6.64804     0.00600     0.02726
    2    -0.00071     6.70916    -0.05823
    3    -0.01394     0.00439     5.83685
 ion   19
    1     6.65143     0.00001    -0.00890
    2     0.00005     6.65622     0.00001
    3     0.00263     0.00005     5.78643
 ion   20
    1     6.64849     0.00564    -0.01745
    2    -0.00007     6.65912     0.00175
    3     0.01037    -0.00083     5.78457
 ion   21
    1     6.64845    -0.00562    -0.01753
    2     0.00007     6.65910    -0.00175
    3     0.01032     0.00086     5.78458
 ion   22
    1     6.66437    -0.00004     0.02520
    2    -0.00001     6.65257    -0.00001
    3     0.00031     0.00000     5.78540
 ion   23
    1     6.66927     0.03657     0.07961
    2    -0.00026     6.60997     0.03258
    3    -0.00248    -0.00082     5.74666
 ion   24
    1     6.66931    -0.03664     0.07965
    2     0.00022     6.61000    -0.03261
    3    -0.00248     0.00084     5.74665
 ion   25
    1     6.66560    -0.00000     0.02702
    2    -0.00002     6.66389    -0.00003
    3    -0.00327     0.00001     5.78871
 ion   26
    1     6.67214     0.05093     0.08102
    2     0.00011     6.70221    -0.02544
    3    -0.00979     0.00105     5.80926
 ion   27
    1     6.67214    -0.05094     0.08101
    2    -0.00003     6.70219     0.02543
    3    -0.00978    -0.00104     5.80924
 ion   28
    1     6.64843     0.00320     0.02068
    2    -0.00011     6.66166    -0.00076
    3    -0.00068    -0.00123     5.78627
 ion   29
    1     6.61124    -0.00005     0.06700
    2    -0.00006     6.65580     0.00002
    3    -0.00514     0.00000     5.78636
 ion   30
    1     6.64844    -0.00328     0.02068
    2     0.00010     6.66169     0.00075
    3    -0.00070     0.00115     5.78627
 ion   31
    1     6.66666     0.03916    -0.04065
    2    -0.00131     6.67494    -0.01130
    3     0.00208     0.00039     5.79592
 ion   32
    1     6.67149    -0.00001     0.35492
    2     0.00001     6.73498     0.00003
    3    -0.00330     0.00005     5.61926
 ion   33
    1     6.66665    -0.03914    -0.04067
    2     0.00131     6.67492     0.01133
    3     0.00207    -0.00041     5.79594
 ion   34
    1     6.66913     0.05898    -0.03333
    2     0.00140     6.64804     0.00587
    3    -0.00138    -0.00622     5.78623
 ion   35
    1     6.69716     0.00001     0.51969
    2     0.00003     6.58859     0.00003
    3     0.00573     0.00002     5.83319
 ion   36
    1     6.66913    -0.05900    -0.03332
    2    -0.00148     6.64801    -0.00587
    3    -0.00136     0.00621     5.78623
 ion   37
    1    -5.52251    -0.00392    -0.01658
    2     0.01308    -1.12316     0.00019
    3    -0.01614     0.00061    -2.89283
 ion   38
    1    -5.43745    -0.00001    -0.03751
    2     0.00001    -1.11891    -0.00002
    3    -0.33730     0.00001    -2.88991
 ion   39
    1    -5.52249     0.00391    -0.01658
    2    -0.01310    -1.12318    -0.00017
    3    -0.01611    -0.00061    -2.89285
 ion   40
    1    -5.53243     0.00823     0.03807
    2     0.00417    -1.12516     0.00259
    3    -0.00235    -0.00485    -2.89500
 ion   41
    1    -5.65288    -0.00001    -0.49241
    2     0.00000    -1.02006    -0.00000
    3    -0.53260    -0.00002    -2.73011
 ion   42
    1    -5.53237    -0.00826     0.03810
    2    -0.00416    -1.12517    -0.00255
    3    -0.00233     0.00487    -2.89500
 ion   43
    1    -5.54256     0.00142     0.02969
    2    -0.00579    -1.11277     0.00358
    3     0.01354     0.00250    -2.89982
 ion   44
    1    -4.96181    -0.00005    -0.52424
    2    -0.00004    -1.16440    -0.00002
    3    -0.55053    -0.00004    -2.96133
 ion   45
    1    -5.54256    -0.00145     0.02969
    2     0.00580    -1.11276    -0.00361
    3     0.01354    -0.00249    -2.89981
 ion   46
    1    -1.11567     0.01590    -0.00776
    2    -0.00089    -5.53629    -0.00405
    3    -0.00197    -0.02057    -2.90524
 ion   47
    1    -1.12198     0.00001    -0.05466
    2     0.00002    -5.45141     0.00003
    3    -0.02006     0.00001    -2.89710
 ion   48
    1    -1.11571    -0.01588    -0.00780
    2     0.00088    -5.53633     0.00401
    3    -0.00197     0.02054    -2.90525
 ion   49
    1    -1.12579     0.01041    -0.00141
    2     0.00410    -5.53545    -0.00143
    3    -0.00433     0.00009    -2.89118
 ion   50
    1    -1.10985     0.00000    -0.12661
    2     0.00007    -5.58306     0.00005
    3    -0.18262     0.00001    -2.78747
 ion   51
    1    -1.12577    -0.01043    -0.00138
    2    -0.00415    -5.53549     0.00154
    3    -0.00434    -0.00005    -2.89118
 ion   52
    1    -1.12799     0.00628    -0.00344
    2    -0.00152    -5.53566     0.00257
    3     0.00014     0.02086    -2.88762
 ion   53
    1    -1.11402    -0.00001    -0.03033
    2    -0.00006    -5.61626    -0.00003
    3    -0.01663     0.00005    -2.90146
 ion   54
    1    -1.12796    -0.00628    -0.00347
    2     0.00155    -5.53559    -0.00251
    3     0.00014    -0.02086    -2.88760
 ion   55
    1    -1.11401     0.00003    -0.00522
    2     0.00001    -5.53433    -0.00000
    3    -0.00047    -0.00004    -2.90296
 ion   56
    1    -1.11823     0.11213    -0.01722
    2    -0.01753    -5.56673     0.06426
    3    -0.01941    -0.01874    -2.86451
 ion   57
    1    -1.11823    -0.11216    -0.01721
    2     0.01747    -5.56675    -0.06425
    3    -0.01941     0.01871    -2.86453
 ion   58
    1    -1.12450    -0.00003    -0.00889
    2     0.00000    -5.52863     0.00009
    3    -0.00543     0.00001    -2.89078
 ion   59
    1    -1.10747     0.16343    -0.02341
    2     0.25809    -5.41856    -0.05230
    3    -0.03740    -0.04337    -2.88825
 ion   60
    1    -1.10748    -0.16341    -0.02343
    2    -0.25807    -5.41856     0.05237
    3    -0.03740     0.04338    -2.88824
 ion   61
    1    -1.12762     0.00001    -0.00121
    2    -0.00006    -5.53711     0.00000
    3     0.00110    -0.00003    -2.88778
 ion   62
    1    -1.09863     0.04414     0.01078
    2    -0.02120    -5.49240    -0.06362
    3    -0.01772     0.04315    -2.92905
 ion   63
    1    -1.09862    -0.04414     0.01075
    2     0.02121    -5.49234     0.06376
    3    -0.01776    -0.04311    -2.92906
 ion   64
    1    -5.53052    -0.00001     0.00731
    2     0.00002    -1.12221     0.00001
    3    -0.00302    -0.00002    -2.89297
 ion   65
    1    -5.52279    -0.00165     0.01843
    2     0.00812    -1.12316    -0.00010
    3    -0.01353     0.00076    -2.89334
 ion   66
    1    -5.52280     0.00163     0.01843
    2    -0.00812    -1.12317     0.00007
    3    -0.01351    -0.00079    -2.89334
 ion   67
    1    -5.53885     0.00001    -0.01716
    2    -0.00003    -1.12292     0.00001
    3    -0.00176    -0.00002    -2.88885
 ion   68
    1    -5.51268     0.00789    -0.04831
    2    -0.00940    -1.12407     0.00203
    3    -0.00779    -0.00136    -2.87508
 ion   69
    1    -5.51267    -0.00792    -0.04839
    2     0.00942    -1.12409    -0.00206
    3    -0.00777     0.00135    -2.87509
 ion   70
    1    -5.53827     0.00000    -0.01504
    2    -0.00001    -1.12019    -0.00002
    3     0.00312     0.00000    -2.89851
 ion   71
    1    -5.55633     0.00319    -0.03815
    2    -0.00490    -1.12527    -0.00389
    3     0.02107    -0.00868    -2.90266
 ion   72
    1    -5.55634    -0.00315    -0.03813
    2     0.00491    -1.12529     0.00386
    3     0.02103     0.00863    -2.90264
 ion   73
    1    -5.53543     0.00002    -0.01421
    2    -0.00000    -1.12374    -0.00001
    3    -0.00104     0.00000    -2.88961
 ion   74
    1    -5.53323    -0.00334    -0.03524
    2     0.00448    -1.11972     0.00301
    3    -0.00383    -0.00275    -2.88027
 ion   75
    1    -5.53325     0.00334    -0.03526
    2    -0.00448    -1.11974    -0.00304
    3    -0.00380     0.00272    -2.88026
 ion   76
    1    -5.54521    -0.00001     0.00090
    2    -0.00001    -1.12218    -0.00000
    3     0.00126    -0.00000    -2.89169
 ion   77
    1    -5.55519    -0.00044    -0.00534
    2    -0.00853    -1.12427    -0.00219
    3     0.00625    -0.00032    -2.88802
 ion   78
    1    -5.55520     0.00049    -0.00537
    2     0.00855    -1.12428     0.00219
    3     0.00621     0.00029    -2.88802
 ion   79
    1    -5.53283     0.00002    -0.01253
    2    -0.00001    -1.12105     0.00000
    3    -0.00032    -0.00003    -2.89744
 ion   80
    1    -5.52859    -0.00490    -0.02900
    2     0.00384    -1.12632    -0.00321
    3    -0.00127     0.00236    -2.90527
 ion   81
    1    -5.52856     0.00492    -0.02897
    2    -0.00387    -1.12627     0.00321
    3    -0.00128    -0.00235    -2.90526
 ion   82
    1    -1.12015     0.00005    -0.00196
    2    -0.00003    -5.53790     0.00000
    3    -0.00306     0.00001    -2.89281
 ion   83
    1    -1.11763     0.00837    -0.00560
    2    -0.00659    -5.53706    -0.00150
    3    -0.00989     0.00206    -2.89212
 ion   84
    1    -1.11763    -0.00830    -0.00556
    2     0.00662    -5.53707     0.00150
    3    -0.00985    -0.00205    -2.89210
 ion   85
    1    -1.11722     0.00001    -0.00236
    2     0.00004    -5.54123    -0.00001
    3     0.00126     0.00002    -2.89621
 ion   86
    1    -1.11145    -0.07377    -0.03070
    2     0.00349    -5.56609    -0.04316
    3     0.00687     0.04772    -2.88567
 ion   87
    1    -1.11143     0.07382    -0.03071
    2    -0.00352    -5.56601     0.04314
    3     0.00686    -0.04778    -2.88567
 ion   88
    1    -1.13145     0.00003    -0.00593
    2     0.00005    -5.53266     0.00000
    3     0.00129    -0.00001    -2.89072
 ion   89
    1    -1.14010    -0.11116    -0.04341
    2     0.00426    -5.51112     0.03472
    3     0.00565    -0.02874    -2.89192
 ion   90
    1    -1.14013     0.11120    -0.04343
    2    -0.00427    -5.51112    -0.03468
    3     0.00564     0.02873    -2.89190
 ion   91
    1    -1.12071     0.00047     0.00119
    2    -0.00090    -5.53638     0.00034
    3     0.00188     0.00038    -2.89365
 ion   92
    1    -1.11917    -0.00000    -0.00641
    2     0.00002    -5.53516     0.00000
    3     0.00340     0.00002    -2.89138
 ion   93
    1    -1.12072    -0.00047     0.00118
    2     0.00090    -5.53643    -0.00034
    3     0.00187    -0.00039    -2.89363
 ion   94
    1    -1.11902    -0.01375    -0.00572
    2     0.00051    -5.53160     0.00529
    3    -0.00157     0.01276    -2.89810
 ion   95
    1    -1.09578     0.00004    -0.08378
    2     0.00002    -5.45929     0.00003
    3    -0.00090    -0.00001    -2.83725
 ion   96
    1    -1.11901     0.01379    -0.00572
    2    -0.00052    -5.53160    -0.00529
    3    -0.00157    -0.01277    -2.89811
 ion   97
    1    -1.13003    -0.02113    -0.00820
    2     0.00005    -5.54091    -0.00377
    3    -0.00022    -0.01125    -2.88850
 ion   98
    1    -1.15052    -0.00002    -0.12199
    2    -0.00002    -5.59918     0.00000
    3     0.00215     0.00000    -2.91649
 ion   99
    1    -1.13004     0.02115    -0.00816
    2    -0.00002    -5.54089     0.00385
    3    -0.00022     0.01124    -2.88849
 ion  100
    1    -5.53342    -0.00516     0.02462
    2     0.00340    -1.12881     0.00389
    3     0.00088     0.00108    -2.89305
 ion  101
    1    -5.58307     0.00002     0.10330
    2     0.00003    -1.12095     0.00000
    3     0.04960     0.00001    -2.95363
 ion  102
    1    -5.53340     0.00519     0.02464
    2    -0.00335    -1.12881    -0.00391
    3     0.00090    -0.00109    -2.89304
 ion  103
    1    -5.55109    -0.00343    -0.00137
    2    -0.00478    -1.12298     0.00129
    3    -0.00679     0.00001    -2.89567
 ion  104
    1    -5.53708     0.00001    -0.08670
    2    -0.00001    -1.12152     0.00001
    3    -0.03791     0.00002    -2.84376
 ion  105
    1    -5.55109     0.00346    -0.00137
    2     0.00480    -1.12298    -0.00130
    3    -0.00682    -0.00001    -2.89567
 ion  106
    1    -5.52769    -0.00727     0.02014
    2     0.00110    -1.11950    -0.00244
    3     0.00544     0.00029    -2.89310
 ion  107
    1    -5.40392     0.00003     0.05882
    2     0.00002    -1.12293     0.00004
    3     0.04012     0.00002    -2.81453
 ion  108
    1    -5.52771     0.00729     0.02013
    2    -0.00105    -1.11949     0.00243
    3     0.00545    -0.00028    -2.89312


--------------------------------------------------------------------------------------------------------


     LOOP+:  cpu time   2038.4643: real time   2075.6902
    4ORBIT:  cpu time      0.0000: real time      0.0000

 total amount of memory used by VASP MPI-rank0   266724. kBytes
=======================================================================

   base      :      30000. kBytes
   nonlr-proj:      19555. kBytes
   fftplans  :      10927. kBytes
   grid      :      23181. kBytes
   one-center:       1679. kBytes
   wavefun   :     181382. kBytes



 General timing and accounting informations for this job:
 ========================================================

                  Total CPU time used (sec):     2048.799
                            User time (sec):     1975.644
                          System time (sec):       73.155
                         Elapsed time (sec):     2095.779

                   Maximum memory used (kb):     1090144.
                   Average memory used (kb):          N/A

                          Minor page faults:      2843865
                          Major page faults:           18
                 Voluntary context switches:       106642
