 vasp.6.3.0 20Jan22 (build Mar 29 2022 16:35:50) gamma-only

 executed on             Bridges2 date 2023.02.16  07:45:46
 running on   64 total cores
 distrk:  each k-point on   64 cores,    1 groups
 distr:  one band on NCORE=   8 cores,    8 groups


--------------------------------------------------------------------------------------------------------


 INCAR:
   LWAVE = .FALSE.
   LCHARG = .FALSE.
   LVTOT = .FALSE.
   NCORE = 8
   EDIFF = 1E-5
   NELM = 80
   PREC = Normal
   LREAL = Auto
   ISPIN = 1
   ENCUT = 500.0 eV
   ISMEAR = 0
   SIGMA = 0.10
   ISIF = 3
   IBRION = 2
   NSW = 100
   EDIFFG = -0.01
   IVDW = 12
   ISYM = 2

 POTCAR:    PAW_PBE Li_sv 10Sep2004
 POTCAR:    PAW_PBE La 06Sep2000
 POTCAR:    PAW_PBE Zr_sv 04Jan2005
 POTCAR:    PAW_PBE O 08Apr2002
 POTCAR:    PAW_PBE Li_sv 10Sep2004
   VRHFIN =Li: 1s2s2p
   LEXCH  = PE
   EATOM  =   202.7858 eV,   14.9043 Ry

   TITEL  = PAW_PBE Li_sv 10Sep2004
   LULTRA =        F    use ultrasoft PP ?
   IUNSCR =        0    unscreen: 0-lin 1-nonlin 2-no
   RPACOR =    0.000    partial core radius
   POMASS =    7.010; ZVAL   =    3.000    mass and valenz
   RCORE  =    1.700    outmost cutoff radius
   RWIGS  =    2.050; RWIGS  =    1.085    wigner-seitz radius (au A)
   ENMAX  =  499.034; ENMIN  =  374.276 eV
   ICORE  =        2    local potential
   LCOR   =        T    correct aug charges
   LPAW   =        T    paw PP
   EAUG   =  628.945
   RMAX   =    1.732    core radius for proj-oper
   RAUG   =    1.300    factor for augmentation sphere
   RDEP   =    1.728    radius for radial grids
   RDEPT  =    1.329    core radius for aug-charge

   Atomic configuration
    4 entries
     n  l   j            E        occ.
     1  0  0.50       -51.8549   2.0000
     2  0  0.50        -2.8742   1.0000
     2  1  0.50        -1.3606   0.0000
     3  2  1.50        -1.3606   0.0000
   Description
     l       E           TYP  RCUT    TYP  RCUT
     0    -51.8548813     23  1.400
     0     -2.8742052     23  1.700
     1     -1.3605826     23  1.400
     2     -1.3605826     23  1.400
  local pseudopotential read in
  atomic valenz-charges read in
  non local Contribution for L=           0  read in
    real space projection operators read in
  non local Contribution for L=           0  read in
    real space projection operators read in
  non local Contribution for L=           1  read in
    real space projection operators read in
    PAW grid and wavefunctions read in

   number of l-projection  operators is LMAX  =           3
   number of lm-projection operators is LMMAX =           5

 POTCAR:    PAW_PBE La 06Sep2000
   VRHFIN =La : [core=Kr4d]
   LEXCH  = PE
   EATOM  =   865.9763 eV,   63.6475 Ry

   TITEL  = PAW_PBE La 06Sep2000
   LULTRA =        F    use ultrasoft PP ?
   IUNSCR =        1    unscreen: 0-lin 1-nonlin 2-no
   RPACOR =    2.300    partial core radius
   POMASS =  138.900; ZVAL   =   11.000    mass and valenz
   RCORE  =    2.800    outmost cutoff radius
   RWIGS  =    2.900; RWIGS  =    1.535    wigner-seitz radius (au A)
   ENMAX  =  219.292; ENMIN  =  164.469 eV
   RCLOC  =    1.601    cutoff for local pot
   LCOR   =        T    correct aug charges
   LPAW   =        T    paw PP
   EAUG   =  583.575
   DEXC   =    0.000
   RMAX   =    2.853    core radius for proj-oper
   RAUG   =    1.300    factor for augmentation sphere
   RDEP   =    2.802    radius for radial grids
   RDEPT  =    2.156    core radius for aug-charge

   Atomic configuration
   14 entries
     n  l   j            E        occ.
     1  0  0.50    -38741.0879   2.0000
     2  0  0.50     -6166.6801   2.0000
     2  1  1.50     -5526.1593   6.0000
     3  0  0.50     -1319.0200   2.0000
     3  1  1.50     -1114.5963   6.0000
     3  2  2.50      -821.1793  10.0000
     4  0  0.50      -266.3851   2.0000
     4  1  1.50      -199.9276   6.0000
     4  2  2.50      -103.8239  10.0000
     5  0  0.50       -38.9172   2.0000
     6  0  0.50        -3.6792   2.0000
     5  1  1.50       -22.3948   6.0000
     5  2  2.50        -3.0911   0.9999
     4  3  2.50        -4.3603   0.0001
   Description
     l       E           TYP  RCUT    TYP  RCUT
     0    -38.9171645     23  2.800
     0     -3.6792381     23  2.800
     1    -22.3948300     23  2.500
     1     27.2116520     23  2.500
     2     -3.0910934     23  2.500
     2      1.0119135     23  2.500
     3     -4.3602911     23  2.800
     3     -5.7208737     23  2.800
  local pseudopotential read in
  partial core-charges read in
  partial kinetic energy density read in
  atomic valenz-charges read in
  non local Contribution for L=           0  read in
    real space projection operators read in
  non local Contribution for L=           0  read in
    real space projection operators read in
  non local Contribution for L=           1  read in
    real space projection operators read in
  non local Contribution for L=           1  read in
    real space projection operators read in
  non local Contribution for L=           2  read in
    real space projection operators read in
  non local Contribution for L=           2  read in
    real space projection operators read in
  non local Contribution for L=           3  read in
    real space projection operators read in
  non local Contribution for L=           3  read in
    real space projection operators read in
    PAW grid and wavefunctions read in

   number of l-projection  operators is LMAX  =           8
   number of lm-projection operators is LMMAX =          32

 POTCAR:    PAW_PBE Zr_sv 04Jan2005
   VRHFIN =Zr: 4s4p5s4d
   LEXCH  = PE
   EATOM  =  1284.2219 eV,   94.3876 Ry

   TITEL  = PAW_PBE Zr_sv 04Jan2005
   LULTRA =        F    use ultrasoft PP ?
   IUNSCR =        1    unscreen: 0-lin 1-nonlin 2-no
   RPACOR =    2.200    partial core radius
   POMASS =   91.224; ZVAL   =   12.000    mass and valenz
   RCORE  =    2.500    outmost cutoff radius
   RWIGS  =    3.070; RWIGS  =    1.625    wigner-seitz radius (au A)
   ENMAX  =  229.898; ENMIN  =  172.424 eV
   ICORE  =        3    local potential
   LCOR   =        T    correct aug charges
   LPAW   =        T    paw PP
   EAUG   =  461.257
   DEXC   =    0.000
   RMAX   =    2.561    core radius for proj-oper
   RAUG   =    1.300    factor for augmentation sphere
   RDEP   =    2.597    radius for radial grids
   RDEPT  =    2.007    core radius for aug-charge

   Atomic configuration
   11 entries
     n  l   j            E        occ.
     1  0  0.50    -17820.0161   2.0000
     2  0  0.50     -2467.0882   2.0000
     2  1  1.50     -2199.6095   6.0000
     3  0  0.50      -402.4863   2.0000
     3  1  1.50      -315.3675   6.0000
     3  2  2.50      -172.4472  10.0000
     4  0  0.50       -52.4146   2.0000
     5  0  0.50        -3.8421   1.0000
     4  1  1.50       -30.5054   6.0000
     4  2  2.50        -2.3341   3.0000
     4  3  2.50        -1.3606   0.0000
   Description
     l       E           TYP  RCUT    TYP  RCUT
     0    -52.4145962     23  2.200
     0     -3.8421270     23  2.500
     1    -30.5053914     23  2.200
     1     20.4087390     23  2.200
     2     -2.3340816     23  2.500
     2     -0.6120942     23  2.500
     3     -4.0817478     23  2.500
  local pseudopotential read in
  partial core-charges read in
  partial kinetic energy density read in
  atomic valenz-charges read in
  non local Contribution for L=           0  read in
    real space projection operators read in
  non local Contribution for L=           0  read in
    real space projection operators read in
  non local Contribution for L=           1  read in
    real space projection operators read in
  non local Contribution for L=           1  read in
    real space projection operators read in
  non local Contribution for L=           2  read in
    real space projection operators read in
  non local Contribution for L=           2  read in
    real space projection operators read in
    PAW grid and wavefunctions read in

   number of l-projection  operators is LMAX  =           6
   number of lm-projection operators is LMMAX =          18

 POTCAR:    PAW_PBE O 08Apr2002
   VRHFIN =O: s2p4
   LEXCH  = PE
   EATOM  =   432.3788 eV,   31.7789 Ry

   TITEL  = PAW_PBE O 08Apr2002
   LULTRA =        F    use ultrasoft PP ?
   IUNSCR =        1    unscreen: 0-lin 1-nonlin 2-no
   RPACOR =    1.200    partial core radius
   POMASS =   16.000; ZVAL   =    6.000    mass and valenz
   RCORE  =    1.520    outmost cutoff radius
   RWIGS  =    1.550; RWIGS  =    0.820    wigner-seitz radius (au A)
   ENMAX  =  400.000; ENMIN  =  300.000 eV
   ICORE  =        2    local potential
   LCOR   =        T    correct aug charges
   LPAW   =        T    paw PP
   EAUG   =  605.392
   DEXC   =    0.000
   RMAX   =    1.553    core radius for proj-oper
   RAUG   =    1.300    factor for augmentation sphere
   RDEP   =    1.550    radius for radial grids
   RDEPT  =    1.329    core radius for aug-charge

   Atomic configuration
    4 entries
     n  l   j            E        occ.
     1  0  0.50      -514.6923   2.0000
     2  0  0.50       -23.9615   2.0000
     2  1  0.50        -9.0305   4.0000
     3  2  1.50        -9.5241   0.0000
   Description
     l       E           TYP  RCUT    TYP  RCUT
     0    -23.9615318     23  1.200
     0     -9.5240782     23  1.200
     1     -9.0304911     23  1.520
     1      8.1634956     23  1.520
     2     -9.5240782      7  1.500
  local pseudopotential read in
  partial core-charges read in
  partial kinetic energy density read in
  kinetic energy density of atom read in
  atomic valenz-charges read in
  non local Contribution for L=           0  read in
    real space projection operators read in
  non local Contribution for L=           0  read in
    real space projection operators read in
  non local Contribution for L=           1  read in
    real space projection operators read in
  non local Contribution for L=           1  read in
    real space projection operators read in
    PAW grid and wavefunctions read in

   number of l-projection  operators is LMAX  =           4
   number of lm-projection operators is LMMAX =           8

 Optimization of the real space projectors (new method)

 maximal supplied QI-value         = 22.11
 optimisation between [QCUT,QGAM] = [ 11.28, 22.77] = [ 35.61,145.23] Ry
 Optimized for a Real-space Cutoff    1.07 Angstroem

   l    n(q)    QCUT    max X(q) W(low)/X(q) W(high)/X(q)  e(spline)
   0      7    11.276    10.506    0.35E-04    0.79E-04    0.14E-07
   0      7    11.276     8.367    0.77E-04    0.18E-03    0.29E-07
   1      7    11.276     8.983    0.48E-03    0.57E-03    0.79E-07
 Optimization of the real space projectors (new method)

 maximal supplied QI-value         = 13.42
 optimisation between [QCUT,QGAM] = [ 11.40, 22.81] = [ 36.42,145.68] Ry
 Optimized for a Real-space Cutoff    1.61 Angstroem

   l    n(q)    QCUT    max X(q) W(low)/X(q) W(high)/X(q)  e(spline)
   0     11    11.404    13.882    0.24E-04    0.22E-04    0.12E-06
   0     11    11.404    12.184    0.35E-04    0.36E-04    0.20E-06
   1     11    11.404     4.523    0.50E-05    0.17E-04    0.83E-07
   1     11    11.404     4.424    0.89E-05    0.25E-04    0.13E-06
   2     10    11.404    52.481    0.82E-04    0.12E-03    0.17E-06
   2     10    11.404    38.501    0.76E-04    0.11E-03    0.16E-06
   3     10    11.404    65.631    0.36E-03    0.41E-04    0.56E-06
   3     10    11.404    56.854    0.37E-03    0.45E-04    0.56E-06
 Optimization of the real space projectors (new method)

 maximal supplied QI-value         = 15.12
 optimisation between [QCUT,QGAM] = [ 11.34, 22.83] = [ 36.00,145.93] Ry
 Optimized for a Real-space Cutoff    1.47 Angstroem

   l    n(q)    QCUT    max X(q) W(low)/X(q) W(high)/X(q)  e(spline)
   0     10    11.338    12.107    0.38E-04    0.13E-04    0.27E-07
   0     10    11.338     9.948    0.69E-04    0.30E-04    0.38E-07
   1     10    11.338     3.563    0.26E-04    0.18E-04    0.40E-07
   1     10    11.338     4.524    0.25E-03    0.39E-04    0.44E-06
   2      9    11.338    87.261    0.26E-03    0.91E-05    0.26E-06
   2      9    11.338    70.950    0.25E-03    0.91E-05    0.25E-06
 Optimization of the real space projectors (new method)

 maximal supplied QI-value         = 24.76
 optimisation between [QCUT,QGAM] = [ 11.39, 22.77] = [ 36.31,145.25] Ry
 Optimized for a Real-space Cutoff    1.00 Angstroem

   l    n(q)    QCUT    max X(q) W(low)/X(q) W(high)/X(q)  e(spline)
   0      7    11.387    20.381    0.39E-03    0.13E-02    0.15E-06
   0      7    11.387    15.268    0.42E-03    0.14E-02    0.17E-06
   1      6    11.387     5.964    0.41E-03    0.11E-02    0.17E-06
   1      6    11.387     5.382    0.39E-03    0.87E-03    0.15E-06
  PAW_PBE Li_sv 10Sep2004               :
 energy of atom  1       EATOM= -202.7858
 kinetic energy error for atom=    0.0143 (will be added to EATOM!!)
  PAW_PBE La 06Sep2000                  :
 energy of atom  2       EATOM= -865.9763
 kinetic energy error for atom=    0.0011 (will be added to EATOM!!)
  PAW_PBE Zr_sv 04Jan2005               :
 energy of atom  3       EATOM=-1284.2219
 kinetic energy error for atom=    0.0049 (will be added to EATOM!!)
  PAW_PBE O 08Apr2002                   :
 energy of atom  4       EATOM= -432.3788
 kinetic energy error for atom=    0.0224 (will be added to EATOM!!)


 POSCAR: Li56 La24 Zr16 O96
  positions in direct lattice
  velocities in cartesian coordinates
 exchange correlation table for  LEXCH =        8
   RHO(1)=    0.500       N(1)  =     2000
   RHO(2)=  100.500       N(2)  =     4000



--------------------------------------------------------------------------------------------------------


 ion  position               nearest neighbor table
   1  0.080  0.163  0.931- 183 1.86 102 2.02  97 2.03 129 2.16  49 2.52  38 2.58  81 2.88  61 3.02
                            89 3.15
   2  0.420  0.337  0.431- 184 1.86 101 2.02  98 2.03 130 2.16  50 2.52  37 2.58  82 2.88  62 3.02
                            90 3.15
   3  0.837  0.580  0.181- 181 1.86 103 2.02  99 2.03 131 2.16  51 2.52  39 2.58  83 2.88  71 3.02
                            94 3.15
   4  0.663  0.920  0.681- 182 1.86 104 2.02 100 2.03 132 2.16  52 2.52  40 2.58  84 2.88  72 3.02
                            93 3.15
   5  0.420  0.163  0.319- 179 1.86  98 2.02 101 2.03 133 2.16  53 2.52  34 2.58  85 2.88  62 3.02
                            91 3.15
   6  0.080  0.337  0.819- 180 1.86  97 2.02 102 2.03 134 2.16  54 2.52  33 2.58  86 2.88  61 3.02
                            92 3.15
   7  0.663  0.580  0.069- 177 1.86  99 2.02 103 2.03 135 2.16  55 2.52  35 2.58  87 2.88  71 3.02
                            96 3.15
   8  0.837  0.920  0.569- 178 1.86 100 2.02 104 2.03 136 2.16  56 2.52  36 2.58  88 2.88  72 3.02
                            95 3.15
   9  0.920  0.337  0.319- 191 1.86 110 2.02 105 2.03 137 2.16  51 2.52  46 2.58  81 2.88  57 3.02
                            83 3.15
  10  0.580  0.163  0.819- 192 1.86 109 2.02 106 2.03 138 2.16  52 2.52  45 2.58  82 2.88  58 3.02
                            84 3.15
  11  0.163  0.920  0.069- 189 1.86 111 2.02 107 2.03 139 2.16  49 2.52  47 2.58  89 2.88  67 3.02
                            94 3.15
  12  0.337  0.580  0.569- 190 1.86 112 2.02 108 2.03 140 2.16  50 2.52  48 2.58  90 2.88  68 3.02
                            93 3.15
  13  0.580  0.337  0.931- 187 1.86 106 2.02 109 2.03 141 2.16  55 2.52  42 2.58  85 2.88  58 3.02
                            87 3.15
  14  0.920  0.163  0.431- 188 1.86 105 2.02 110 2.03 142 2.16  56 2.52  41 2.58  86 2.88  57 3.02
                            88 3.15
  15  0.337  0.920  0.181- 185 1.86 107 2.02 111 2.03 143 2.16  53 2.52  43 2.58  91 2.88  67 3.02
                            96 3.15
  16  0.163  0.580  0.681- 186 1.86 108 2.02 112 2.03 144 2.16  54 2.52  44 2.58  92 2.88  68 3.02
                            95 3.15
  17  0.580  0.663  0.431- 167 1.86 118 2.02 113 2.03 145 2.16  50 2.52  36 2.58  93 2.88  69 3.02
                            83 3.15
  18  0.920  0.837  0.931- 168 1.86 117 2.02 114 2.03 146 2.16  49 2.52  35 2.58  94 2.88  70 3.02
                            84 3.15
  19  0.337  0.080  0.681- 165 1.86 119 2.02 115 2.03 147 2.16  52 2.52  33 2.58  89 2.88  63 3.02
                            82 3.15
  20  0.163  0.420  0.181- 166 1.86 120 2.02 116 2.03 148 2.16  51 2.52  34 2.58  90 2.88  64 3.02
                            81 3.15
  21  0.920  0.663  0.819- 163 1.86 114 2.02 117 2.03 149 2.16  54 2.52  40 2.58  95 2.88  70 3.02
                            87 3.15
  22  0.580  0.837  0.319- 164 1.86 113 2.02 118 2.03 150 2.16  53 2.52  39 2.58  96 2.88  69 3.02
                            88 3.15
  23  0.163  0.080  0.569- 161 1.86 115 2.02 119 2.03 151 2.16  56 2.52  37 2.58  91 2.88  63 3.02
                            86 3.15
  24  0.337  0.420  0.069- 162 1.86 116 2.02 120 2.03 152 2.16  55 2.52  38 2.58  92 2.88  64 3.02
                            85 3.15
  25  0.420  0.837  0.819- 175 1.86 126 2.02 121 2.03 153 2.16  52 2.52  44 2.58  93 2.88  65 3.02
                            89 3.15
  26  0.080  0.663  0.319- 176 1.86 125 2.02 122 2.03 154 2.16  51 2.52  43 2.58  94 2.88  66 3.02
                            90 3.15
  27  0.663  0.420  0.569- 173 1.86 127 2.02 123 2.03 155 2.16  50 2.52  41 2.58  83 2.88  59 3.02
                            82 3.15
  28  0.837  0.080  0.069- 174 1.86 128 2.02 124 2.03 156 2.16  49 2.52  42 2.58  84 2.88  60 3.02
                            81 3.15
  29  0.080  0.837  0.431- 171 1.86 122 2.02 125 2.03 157 2.16  56 2.52  48 2.58  95 2.88  66 3.02
                            91 3.15
  30  0.420  0.663  0.931- 172 1.86 121 2.02 126 2.03 158 2.16  55 2.52  47 2.58  96 2.88  65 3.02
                            92 3.15
  31  0.837  0.420  0.681- 169 1.86 123 2.02 127 2.03 159 2.16  54 2.52  45 2.58  87 2.88  59 3.02
                            86 3.15
  32  0.663  0.080  0.181- 170 1.86 124 2.02 128 2.03 160 2.16  53 2.52  46 2.58  88 2.88  60 3.02
                            85 3.15
  33  0.180  0.180  0.750- 119 1.94  97 1.94   6 2.58  19 2.58  86 2.97  89 2.97  58 3.09  68 3.09

  34  0.320  0.320  0.250-  98 1.94 120 1.94   5 2.58  20 2.58  85 2.97  90 2.97  57 3.09  67 3.09

  35  0.820  0.680  0.000-  99 1.94 117 1.94   7 2.58  18 2.58  87 2.97  94 2.97  60 3.09  65 3.09

  36  0.680  0.820  0.500- 100 1.94 118 1.94   8 2.58  17 2.58  88 2.97  93 2.97  59 3.09  66 3.09

  37  0.320  0.180  0.500- 115 1.94 101 1.94   2 2.58  23 2.58  82 2.97  91 2.97  57 3.09  68 3.09

  38  0.180  0.320  0.000- 102 1.94 116 1.94  24 2.58   1 2.58  81 2.97  92 2.97  58 3.09  67 3.09

  39  0.680  0.680  0.250- 103 1.94 113 1.94   3 2.58  22 2.58  83 2.97  96 2.97  60 3.09  66 3.09

  40  0.820  0.820  0.750- 104 1.94 114 1.94   4 2.58  21 2.58  84 2.97  95 2.97  59 3.09  65 3.09

  41  0.820  0.320  0.500- 105 1.94 127 1.94  27 2.58  14 2.58  83 2.97  86 2.97  62 3.09  72 3.09

  42  0.680  0.180  0.000- 128 1.94 106 1.94  13 2.58  28 2.58  84 2.97  85 2.97  61 3.09  71 3.09

  43  0.180  0.820  0.250- 125 1.94 107 1.94  15 2.58  26 2.58  91 2.97  94 2.97  64 3.09  69 3.09

  44  0.320  0.680  0.750- 108 1.94 126 1.94  25 2.58  16 2.58  92 2.97  93 2.97  63 3.09  70 3.09

  45  0.680  0.320  0.750- 109 1.94 123 1.94  31 2.58  10 2.58  82 2.97  87 2.97  61 3.09  72 3.09

  46  0.820  0.180  0.250- 124 1.94 110 1.94   9 2.58  32 2.58  81 2.97  88 2.97  62 3.09  71 3.09

  47  0.320  0.820  0.000- 111 1.94 121 1.94  30 2.58  11 2.58  89 2.97  96 2.97  64 3.09  70 3.09

  48  0.180  0.680  0.500- 122 1.94 112 1.94  12 2.58  29 2.58  90 2.97  95 2.97  63 3.09  69 3.09

  49  0.000  0.000  0.000- 146 1.89 156 1.89 129 1.89 139 1.89   1 2.52  11 2.52  28 2.52  18 2.52
                            73 3.13  79 3.13
  50  0.500  0.500  0.500- 145 1.89 155 1.89 130 1.89 140 1.89   2 2.52  12 2.52  17 2.52  27 2.52
                            74 3.13  80 3.13
  51  0.000  0.500  0.250- 131 1.89 154 1.89 148 1.89 137 1.89  20 2.52  26 2.52   3 2.52   9 2.52
                            75 3.13  77 3.13
  52  0.500  0.000  0.750- 132 1.89 153 1.89 138 1.89 147 1.89  10 2.52  19 2.52   4 2.52  25 2.52
                            76 3.13  78 3.13
  53  0.500  0.000  0.250- 150 1.89 160 1.89 133 1.89 143 1.89   5 2.52  32 2.52  22 2.52  15 2.52
                            76 3.13  78 3.13
  54  0.000  0.500  0.750- 149 1.89 159 1.89 144 1.89 134 1.89  16 2.52   6 2.52  21 2.52  31 2.52
                            75 3.13  77 3.13
  55  0.500  0.500  0.000- 158 1.89 135 1.89 141 1.89 152 1.89   7 2.52  13 2.52  24 2.52  30 2.52
                            74 3.13  80 3.13
  56  0.000  0.000  0.500- 136 1.89 157 1.89 142 1.89 151 1.89  23 2.52  14 2.52  29 2.52   8 2.52
                            73 3.13  79 3.13
  57  0.128  0.250  0.375- 179 2.44 184 2.44 161 2.51 166 2.51 105 2.55 110 2.55 151 2.60 148 2.60
                             9 3.02  14 3.02  34 3.09  37 3.09  81 3.55  86 3.55  90 3.63  91 3.63
  58  0.372  0.250  0.875- 180 2.44 183 2.44 162 2.51 165 2.51 109 2.55 106 2.55 147 2.60 152 2.60
                            13 3.02  10 3.02  33 3.09  38 3.09  82 3.55  85 3.55  89 3.63  92 3.63
  59  0.750  0.628  0.625- 178 2.44 182 2.44 163 2.51 167 2.51 123 2.55 127 2.55 145 2.60 149 2.60
                            27 3.02  31 3.02  36 3.09  40 3.09  83 3.55  87 3.55  93 3.63  95 3.63
  60  0.750  0.872  0.125- 177 2.44 181 2.44 164 2.51 168 2.51 124 2.55 128 2.55 150 2.60 146 2.60
                            28 3.02  32 3.02  35 3.09  39 3.09  84 3.55  88 3.55  94 3.63  96 3.63
  61  0.872  0.250  0.875- 187 2.44 192 2.44 169 2.51 174 2.51 102 2.55  97 2.55 156 2.60 159 2.60
                             6 3.02   1 3.02  42 3.09  45 3.09  81 3.55  86 3.55  84 3.63  87 3.63
  62  0.628  0.250  0.375- 188 2.44 191 2.44 170 2.51 173 2.51  98 2.55 101 2.55 160 2.60 155 2.60
                             2 3.02   5 3.02  41 3.09  46 3.09  82 3.55  85 3.55  83 3.63  88 3.63
  63  0.250  0.872  0.625- 186 2.44 190 2.44 171 2.51 175 2.51 115 2.55 119 2.55 157 2.60 153 2.60
                            19 3.02  23 3.02  44 3.09  48 3.09  89 3.55  91 3.55  93 3.63  95 3.63
  64  0.250  0.628  0.125- 185 2.44 189 2.44 172 2.51 176 2.51 120 2.55 116 2.55 154 2.60 158 2.60
                            24 3.02  20 3.02  43 3.09  47 3.09  90 3.55  92 3.55  94 3.63  96 3.63
  65  0.628  0.750  0.875- 163 2.44 168 2.44 177 2.51 182 2.51 121 2.55 126 2.55 132 2.60 135 2.60
                            25 3.02  30 3.02  35 3.09  40 3.09  93 3.55  96 3.55  84 3.63  87 3.63
  66  0.872  0.750  0.375- 164 2.44 167 2.44 178 2.51 181 2.51 122 2.55 125 2.55 131 2.60 136 2.60
                            26 3.02  29 3.02  36 3.09  39 3.09  94 3.55  95 3.55  83 3.63  88 3.63
  67  0.250  0.128  0.125- 162 2.44 166 2.44 179 2.51 183 2.51 111 2.55 107 2.55 129 2.60 133 2.60
                            15 3.02  11 3.02  34 3.09  38 3.09  89 3.55  91 3.55  81 3.63  85 3.63
  68  0.250  0.372  0.625- 161 2.44 165 2.44 180 2.51 184 2.51 108 2.55 112 2.55 134 2.60 130 2.60
                            12 3.02  16 3.02  33 3.09  37 3.09  90 3.55  92 3.55  82 3.63  86 3.63
  69  0.372  0.750  0.375- 171 2.44 176 2.44 185 2.51 190 2.51 113 2.55 118 2.55 140 2.60 143 2.60
                            17 3.02  22 3.02  43 3.09  48 3.09  93 3.55  96 3.55  90 3.63  91 3.63
  70  0.128  0.750  0.875- 172 2.44 175 2.44 186 2.51 189 2.51 114 2.55 117 2.55 139 2.60 144 2.60
                            18 3.02  21 3.02  44 3.09  47 3.09  94 3.55  95 3.55  89 3.63  92 3.63
  71  0.750  0.372  0.125- 170 2.44 174 2.44 187 2.51 191 2.51  99 2.55 103 2.55 137 2.60 141 2.60
                             3 3.02   7 3.02  42 3.09  46 3.09  83 3.55  87 3.55  85 3.63  81 3.63
  72  0.750  0.128  0.625- 169 2.44 173 2.44 188 2.51 192 2.51 100 2.55 104 2.55 138 2.60 142 2.60
                             4 3.02   8 3.02  41 3.09  45 3.09  84 3.55  88 3.55  86 3.63  82 3.63
  73  0.000  0.000  0.250- 136 2.52 146 2.52 151 2.52 129 2.52 107 2.60 110 2.60 124 2.60 125 2.60
                            49 3.13  56 3.13  81 3.62  88 3.62  91 3.62  94 3.62
  74  0.500  0.500  0.750- 135 2.52 145 2.52 130 2.52 152 2.52 108 2.60 109 2.60 123 2.60 126 2.60
                            50 3.13  55 3.13  82 3.62  87 3.62  92 3.62  93 3.62
  75  0.000  0.500  0.500- 131 2.52 149 2.52 148 2.52 134 2.52 112 2.60 105 2.60 127 2.60 122 2.60
                            51 3.13  54 3.13  83 3.62  86 3.62  90 3.62  95 3.62
  76  0.500  0.000  0.000- 132 2.52 150 2.52 133 2.52 147 2.52 106 2.60 111 2.60 121 2.60 128 2.60
                            52 3.13  53 3.13  84 3.62  85 3.62  89 3.62  96 3.62
  77  0.000  0.500  0.000- 159 2.52 154 2.52 144 2.52 137 2.52 116 2.60  99 2.60 117 2.60 102 2.60
                            51 3.13  54 3.13  81 3.62  87 3.62  92 3.62  94 3.62
  78  0.500  0.000  0.500- 153 2.52 160 2.52 138 2.52 143 2.52 101 2.60 100 2.60 118 2.60 115 2.60
                            52 3.13  53 3.13  82 3.62  88 3.62  91 3.62  93 3.62
  79  0.000  0.000  0.750- 156 2.52 157 2.52 139 2.52 142 2.52  97 2.60 119 2.60 114 2.60 104 2.60
                            49 3.13  56 3.13  84 3.62  86 3.62  89 3.62  95 3.62
  80  0.500  0.500  0.250- 155 2.52 158 2.52 140 2.52 141 2.52  98 2.60 103 2.60 113 2.60 120 2.60
                            50 3.13  55 3.13  83 3.62  85 3.62  90 3.62  96 3.62
  81  0.000  0.250  0.125- 137 2.10 129 2.10 166 2.11 174 2.11 102 2.11 110 2.11   9 2.88   1 2.88
                            38 2.97  46 2.97  20 3.15  28 3.15  57 3.55  61 3.55  73 3.62  77 3.62
  82  0.500  0.250  0.625- 130 2.10 138 2.10 165 2.11 173 2.11 109 2.11 101 2.11   2 2.88  10 2.88
                            37 2.97  45 2.97  27 3.15  19 3.15  58 3.55  62 3.55  74 3.62  78 3.62
  83  0.750  0.500  0.375- 131 2.10 155 2.10 167 2.11 191 2.11 103 2.11 127 2.11   3 2.88  27 2.88
                            39 2.97  41 2.97  17 3.15   9 3.15  59 3.55  71 3.55  75 3.62  80 3.62
  84  0.750  0.000  0.875- 132 2.10 156 2.10 168 2.11 192 2.11 104 2.11 128 2.11  28 2.88   4 2.88
                            40 2.97  42 2.97  10 3.15  18 3.15  60 3.55  72 3.55  76 3.62  79 3.62
  85  0.500  0.250  0.125- 141 2.10 133 2.10 162 2.11 170 2.11  98 2.11 106 2.11  13 2.88   5 2.88
                            34 2.97  42 2.97  24 3.15  32 3.15  58 3.55  62 3.55  76 3.62  80 3.62
  86  0.000  0.250  0.625- 134 2.10 142 2.10 161 2.11 169 2.11 105 2.11  97 2.11   6 2.88  14 2.88
                            33 2.97  41 2.97  23 3.15  31 3.15  57 3.55  61 3.55  75 3.62  79 3.62
  87  0.750  0.500  0.875- 135 2.10 159 2.10 163 2.11 187 2.11  99 2.11 123 2.11   7 2.88  31 2.88
                            35 2.97  45 2.97  21 3.15  13 3.15  59 3.55  71 3.55  74 3.62  77 3.62
  88  0.750  0.000  0.375- 136 2.10 160 2.10 164 2.11 188 2.11 100 2.11 124 2.11  32 2.88   8 2.88
                            36 2.97  46 2.97  14 3.15  22 3.15  60 3.55  72 3.55  73 3.62  78 3.62
  89  0.250  0.000  0.875- 147 2.10 139 2.10 175 2.11 183 2.11 111 2.11 119 2.11  19 2.88  11 2.88
                            33 2.97  47 2.97   1 3.15  25 3.15  63 3.55  67 3.55  76 3.62  79 3.62
  90  0.250  0.500  0.375- 140 2.10 148 2.10 176 2.11 184 2.11 120 2.11 112 2.11  12 2.88  20 2.88
                            34 2.97  48 2.97   2 3.15  26 3.15  64 3.55  68 3.55  75 3.62  80 3.62
  91  0.250  0.000  0.375- 143 2.10 151 2.10 171 2.11 179 2.11 115 2.11 107 2.11  15 2.88  23 2.88
                            37 2.97  43 2.97   5 3.15  29 3.15  63 3.55  67 3.55  73 3.62  78 3.62
  92  0.250  0.500  0.875- 152 2.10 144 2.10 172 2.11 180 2.11 108 2.11 116 2.11  24 2.88  16 2.88
                            38 2.97  44 2.97  30 3.15   6 3.15  64 3.55  68 3.55  74 3.62  77 3.62
  93  0.500  0.750  0.625- 145 2.10 153 2.10 182 2.11 190 2.11 118 2.11 126 2.11  17 2.88  25 2.88
                            36 2.97  44 2.97   4 3.15  12 3.15  65 3.55  69 3.55  74 3.62  78 3.62
  94  0.000  0.750  0.125- 146 2.10 154 2.10 181 2.11 189 2.11 117 2.11 125 2.11  26 2.88  18 2.88
                            35 2.97  43 2.97  11 3.15   3 3.15  66 3.55  70 3.55  73 3.62  77 3.62
  95  0.000  0.750  0.625- 149 2.10 157 2.10 178 2.11 186 2.11 114 2.11 122 2.11  29 2.88  21 2.88
                            40 2.97  48 2.97  16 3.15   8 3.15  66 3.55  70 3.55  75 3.62  79 3.62
  96  0.500  0.750  0.125- 150 2.10 158 2.10 177 2.11 185 2.11 113 2.11 121 2.11  22 2.88  30 2.88
                            39 2.97  47 2.97   7 3.15  15 3.15  65 3.55  69 3.55  76 3.62  80 3.62
  97  0.035  0.194  0.779-  33 1.94   6 2.02   1 2.03  86 2.11  61 2.55  79 2.60
  98  0.465  0.306  0.279-  34 1.94   5 2.02   2 2.03  85 2.11  62 2.55  80 2.60
  99  0.806  0.535  0.029-  35 1.94   7 2.02   3 2.03  87 2.11  71 2.55  77 2.60
 100  0.694  0.965  0.529-  36 1.94   8 2.02   4 2.03  88 2.11  72 2.55  78 2.60
 101  0.465  0.194  0.471-  37 1.94   2 2.02   5 2.03  82 2.11  62 2.55  78 2.60
 102  0.035  0.306  0.971-  38 1.94   1 2.02   6 2.03  81 2.11  61 2.55  77 2.60
 103  0.694  0.535  0.221-  39 1.94   3 2.02   7 2.03  83 2.11  71 2.55  80 2.60
 104  0.806  0.965  0.721-  40 1.94   4 2.02   8 2.03  84 2.11  72 2.55  79 2.60
 105  0.965  0.306  0.471-  41 1.94  14 2.02   9 2.03  86 2.11  57 2.55  75 2.60
 106  0.535  0.194  0.971-  42 1.94  13 2.02  10 2.03  85 2.11  58 2.55  76 2.60
 107  0.194  0.965  0.221-  43 1.94  15 2.02  11 2.03  91 2.11  67 2.55  73 2.60
 108  0.306  0.535  0.721-  44 1.94  16 2.02  12 2.03  92 2.11  68 2.55  74 2.60
 109  0.535  0.306  0.779-  45 1.94  10 2.02  13 2.03  82 2.11  58 2.55  74 2.60
 110  0.965  0.194  0.279-  46 1.94   9 2.02  14 2.03  81 2.11  57 2.55  73 2.60
 111  0.306  0.965  0.029-  47 1.94  11 2.02  15 2.03  89 2.11  67 2.55  76 2.60
 112  0.194  0.535  0.529-  48 1.94  12 2.02  16 2.03  90 2.11  68 2.55  75 2.60
 113  0.535  0.694  0.279-  39 1.94  22 2.02  17 2.03  96 2.11  69 2.55  80 2.60
 114  0.965  0.806  0.779-  40 1.94  21 2.02  18 2.03  95 2.11  70 2.55  79 2.60
 115  0.306  0.035  0.529-  37 1.94  23 2.02  19 2.03  91 2.11  63 2.55  78 2.60
 116  0.194  0.465  0.029-  38 1.94  24 2.02  20 2.03  92 2.11  64 2.55  77 2.60
 117  0.965  0.694  0.971-  35 1.94  18 2.02  21 2.03  94 2.11  70 2.55  77 2.60
 118  0.535  0.806  0.471-  36 1.94  17 2.02  22 2.03  93 2.11  69 2.55  78 2.60
 119  0.194  0.035  0.721-  33 1.94  19 2.02  23 2.03  89 2.11  63 2.55  79 2.60
 120  0.306  0.465  0.221-  34 1.94  20 2.02  24 2.03  90 2.11  64 2.55  80 2.60
 121  0.465  0.806  0.971-  47 1.94  30 2.02  25 2.03  96 2.11  65 2.55  76 2.60
 122  0.035  0.694  0.471-  48 1.94  29 2.02  26 2.03  95 2.11  66 2.55  75 2.60
 123  0.694  0.465  0.721-  45 1.94  31 2.02  27 2.03  87 2.11  59 2.55  74 2.60
 124  0.806  0.035  0.221-  46 1.94  32 2.02  28 2.03  88 2.11  60 2.55  73 2.60
 125  0.035  0.806  0.279-  43 1.94  26 2.02  29 2.03  94 2.11  66 2.55  73 2.60
 126  0.465  0.694  0.779-  44 1.94  25 2.02  30 2.03  93 2.11  65 2.55  74 2.60
 127  0.806  0.465  0.529-  41 1.94  27 2.02  31 2.03  83 2.11  59 2.55  75 2.60
 128  0.694  0.035  0.029-  42 1.94  28 2.02  32 2.03  84 2.11  60 2.55  76 2.60
 129  0.055  0.102  0.090-  49 1.89  81 2.10   1 2.16  73 2.52  67 2.60
 130  0.445  0.398  0.590-  50 1.89  82 2.10   2 2.16  74 2.52  68 2.60
 131  0.898  0.555  0.340-  51 1.89  83 2.10   3 2.16  75 2.52  66 2.60
 132  0.602  0.945  0.840-  52 1.89  84 2.10   4 2.16  76 2.52  65 2.60
 133  0.445  0.102  0.160-  53 1.89  85 2.10   5 2.16  76 2.52  67 2.60
 134  0.055  0.398  0.660-  54 1.89  86 2.10   6 2.16  75 2.52  68 2.60
 135  0.602  0.555  0.910-  55 1.89  87 2.10   7 2.16  74 2.52  65 2.60
 136  0.898  0.945  0.410-  56 1.89  88 2.10   8 2.16  73 2.52  66 2.60
 137  0.945  0.398  0.160-  51 1.89  81 2.10   9 2.16  77 2.52  71 2.60
 138  0.555  0.102  0.660-  52 1.89  82 2.10  10 2.16  78 2.52  72 2.60
 139  0.102  0.945  0.910-  49 1.89  89 2.10  11 2.16  79 2.52  70 2.60
 140  0.398  0.555  0.410-  50 1.89  90 2.10  12 2.16  80 2.52  69 2.60
 141  0.555  0.398  0.090-  55 1.89  85 2.10  13 2.16  80 2.52  71 2.60
 142  0.945  0.102  0.590-  56 1.89  86 2.10  14 2.16  79 2.52  72 2.60
 143  0.398  0.945  0.340-  53 1.89  91 2.10  15 2.16  78 2.52  69 2.60
 144  0.102  0.555  0.840-  54 1.89  92 2.10  16 2.16  77 2.52  70 2.60
 145  0.555  0.602  0.590-  50 1.89  93 2.10  17 2.16  74 2.52  59 2.60
 146  0.945  0.898  0.090-  49 1.89  94 2.10  18 2.16  73 2.52  60 2.60
 147  0.398  0.055  0.840-  52 1.89  89 2.10  19 2.16  76 2.52  58 2.60
 148  0.102  0.445  0.340-  51 1.89  90 2.10  20 2.16  75 2.52  57 2.60
 149  0.945  0.602  0.660-  54 1.89  95 2.10  21 2.16  75 2.52  59 2.60
 150  0.555  0.898  0.160-  53 1.89  96 2.10  22 2.16  76 2.52  60 2.60
 151  0.102  0.055  0.410-  56 1.89  91 2.10  23 2.16  73 2.52  57 2.60
 152  0.398  0.445  0.910-  55 1.89  92 2.10  24 2.16  74 2.52  58 2.60
 153  0.445  0.898  0.660-  52 1.89  93 2.10  25 2.16  78 2.52  63 2.60
 154  0.055  0.602  0.160-  51 1.89  94 2.10  26 2.16  77 2.52  64 2.60
 155  0.602  0.445  0.410-  50 1.89  83 2.10  27 2.16  80 2.52  62 2.60
 156  0.898  0.055  0.910-  49 1.89  84 2.10  28 2.16  79 2.52  61 2.60
 157  0.055  0.898  0.590-  56 1.89  95 2.10  29 2.16  79 2.52  63 2.60
 158  0.445  0.602  0.090-  55 1.89  96 2.10  30 2.16  80 2.52  64 2.60
 159  0.898  0.445  0.840-  54 1.89  87 2.10  31 2.16  77 2.52  61 2.60
 160  0.602  0.055  0.340-  53 1.89  88 2.10  32 2.16  78 2.52  62 2.60
 161  0.151  0.222  0.572-  23 1.86  86 2.11  68 2.44  57 2.51
 162  0.349  0.278  0.072-  24 1.86  85 2.11  67 2.44  58 2.51
 163  0.778  0.651  0.822-  21 1.86  87 2.11  65 2.44  59 2.51
 164  0.722  0.849  0.322-  22 1.86  88 2.11  66 2.44  60 2.51
 165  0.349  0.222  0.678-  19 1.86  82 2.11  68 2.44  58 2.51
 166  0.151  0.278  0.178-  20 1.86  81 2.11  67 2.44  57 2.51
 167  0.722  0.651  0.428-  17 1.86  83 2.11  66 2.44  59 2.51
 168  0.778  0.849  0.928-  18 1.86  84 2.11  65 2.44  60 2.51
 169  0.849  0.278  0.678-  31 1.86  86 2.11  72 2.44  61 2.51
 170  0.651  0.222  0.178-  32 1.86  85 2.11  71 2.44  62 2.51
 171  0.222  0.849  0.428-  29 1.86  91 2.11  69 2.44  63 2.51
 172  0.278  0.651  0.928-  30 1.86  92 2.11  70 2.44  64 2.51
 173  0.651  0.278  0.572-  27 1.86  82 2.11  72 2.44  62 2.51
 174  0.849  0.222  0.072-  28 1.86  81 2.11  71 2.44  61 2.51
 175  0.278  0.849  0.822-  25 1.86  89 2.11  70 2.44  63 2.51
 176  0.222  0.651  0.322-  26 1.86  90 2.11  69 2.44  64 2.51
 177  0.651  0.722  0.072-   7 1.86  96 2.11  60 2.44  65 2.51
 178  0.849  0.778  0.572-   8 1.86  95 2.11  59 2.44  66 2.51
 179  0.278  0.151  0.322-   5 1.86  91 2.11  57 2.44  67 2.51
 180  0.222  0.349  0.822-   6 1.86  92 2.11  58 2.44  68 2.51
 181  0.849  0.722  0.178-   3 1.86  94 2.11  60 2.44  66 2.51
 182  0.651  0.778  0.678-   4 1.86  93 2.11  59 2.44  65 2.51
 183  0.222  0.151  0.928-   1 1.86  89 2.11  58 2.44  67 2.51
 184  0.278  0.349  0.428-   2 1.86  90 2.11  57 2.44  68 2.51
 185  0.349  0.778  0.178-  15 1.86  96 2.11  64 2.44  69 2.51
 186  0.151  0.722  0.678-  16 1.86  95 2.11  63 2.44  70 2.51
 187  0.722  0.349  0.928-  13 1.86  87 2.11  61 2.44  71 2.51
 188  0.778  0.151  0.428-  14 1.86  88 2.11  62 2.44  72 2.51
 189  0.151  0.778  0.072-  11 1.86  94 2.11  64 2.44  70 2.51
 190  0.349  0.722  0.572-  12 1.86  93 2.11  63 2.44  69 2.51
 191  0.778  0.349  0.322-   9 1.86  83 2.11  62 2.44  71 2.51
 192  0.722  0.151  0.822-  10 1.86  84 2.11  61 2.44  72 2.51

  LATTYP: Found a simple tetragonal cell.
 ALAT       =    13.0502380937
 C/A-ratio  =     0.9599052540

  Lattice vectors:

 A1 = (  13.0502380937,   0.0000000000,   0.0000000000)
 A2 = (   0.0000000000,  13.0502380937,   0.0000000000)
 A3 = (   0.0000000000,   0.0000000000,  12.5269921126)


Analysis of symmetry for initial positions (statically):
=====================================================================
 Subroutine PRICEL returns following result:

  LATTYP: Found a body centered tetragonal cell.
 ALAT       =    13.0502380937
 C/A-ratio  =     0.9599052540

  Lattice vectors:

 A1 = (  -6.5251190468,  -6.5251190468,  -6.2634960563)
 A2 = (   6.5251190468,   6.5251190468,  -6.2634960563)
 A3 = (   6.5251190468,  -6.5251190468,   6.2634960563)

   2 primitive cells build up your supercell.


 Routine SETGRP: Setting up the symmetry group for a
 simple tetragonal supercell.


 Subroutine GETGRP returns: Found 16 space group operations
 (whereof  4 operations were pure point group operations)
 out of a pool of 16 trial point group operations.


The static configuration has the point symmetry S_4 .
 The point group associated with its full space group is D_4h.


Analysis of symmetry for dynamics (positions and initial velocities):
=====================================================================
 Subroutine PRICEL returns following result:

  LATTYP: Found a body centered tetragonal cell.
 ALAT       =    13.0502380937
 C/A-ratio  =     0.9599052540

  Lattice vectors:

 A1 = (  -6.5251190468,  -6.5251190468,  -6.2634960563)
 A2 = (   6.5251190468,   6.5251190468,  -6.2634960563)
 A3 = (   6.5251190468,  -6.5251190468,   6.2634960563)

   2 primitive cells build up your supercell.


 Routine SETGRP: Setting up the symmetry group for a
 simple tetragonal supercell.


 Subroutine GETGRP returns: Found 16 space group operations
 (whereof  4 operations were pure point group operations)
 out of a pool of 16 trial point group operations.


The dynamic configuration has the point symmetry S_4 .
 The point group associated with its full space group is D_4h.


 Subroutine INISYM returns: Found 16 space group operations
 (whereof  4 operations are pure point group operations),
 and found     2 'primitive' translations


----------------------------------------------------------------------------------------

                                     Primitive cell

  volume of cell :    1066.7280

  direct lattice vectors                    reciprocal lattice vectors
    -6.525119047 -6.525119047 -6.263496056    -0.000000000 -0.076626954 -0.079827623
     6.525119047  6.525119047 -6.263496056     0.076626954  0.000000000 -0.079827623
     6.525119047 -6.525119047  6.263496056     0.076626954 -0.076626954 -0.000000000

  length of vectors
    11.152835514 11.152835514 11.152835514     0.110653240  0.110653240  0.108366878

  position of ions in fractional coordinates (direct lattice)
     0.906312636  0.149118963  0.917401663
     0.231717315  0.988910965  0.082598344
     0.238910973  I'm wrong  0.257193659
     0.399118971  0.981717300  0.742806334
     0.518282700  0.100881029  0.257193666
     0.843687379  0.261089027  0.742806341
     0.350881037  0.593687364  0.082598337
     0.511089035  0.268282685  0.917401656
     0.343687379  0.600881029  0.582598344
     0.018282700  0.761089035  0.417401671
     0.011089035  0.093687364  0.242806334
     0.850881037  0.768282685  0.757193659
     0.731717315  0.649118971  0.242806349
     0.406312636  0.488910965  0.757193666
     0.899118971  0.156312621  0.417401656
     0.738910973  0.481717315  0.582598352
     0.069716578  0.430283422  1.000000000
     0.430283422  0.069716578  1.000000000
     0.319716578  0.819716578  0.139433156
     0.680283422  0.180283422  0.860566844
     0.180283422  0.319716578  0.500000000
     0.819716578  0.680283422  0.500000000
     0.930283422  0.930283422  0.360566844
     0.569716578  0.569716578  0.639433156
     0.000000000  0.000000000  0.000000000
     0.250000000  0.750000000  0.500000000
     0.750000000  0.250000000  0.500000000
     0.500000000  0.500000000  1.000000000
     0.375000000  0.752759801  0.877759801
     0.875000000  0.497240199  0.122240199
     0.747240199  0.125000000  0.122240199
     0.002759801  0.625000000  0.877759801
     0.875000000  0.997240199  0.622240199
     0.375000000  0.252759801  0.377759801
     0.502759801  0.625000000  0.377759801
     0.247240199  0.125000000  0.622240199
     0.750000000  0.750000000  1.000000000
     1.000000000  0.500000000  0.500000000
     0.500000000  0.000000000  0.500000000
     0.250000000  0.250000000  1.000000000
     0.625000000  0.875000000  0.750000000
     0.125000000  0.875000000  0.250000000
     0.125000000  0.375000000  0.250000000
     0.125000000  0.875000000  0.750000000
     0.625000000  0.375000000  0.250000000
     0.125000000  0.375000000  0.750000000
     0.625000000  0.875000000  0.250000000
     0.625000000  0.375000000  0.750000000
     0.026803472  0.256024453  0.840821438
     0.415203029  0.185982042  0.159178584
     0.435982042  0.776803458  0.270779013
     0.506024445  0.165203015  0.729220973
     0.334796971  0.993975555  0.270779013
     0.723196542  0.064017966  0.729220995
     0.243975547  0.473196528  0.159178562
     0.314017958  0.084796971  0.840821416
     0.223196542  0.493975555  0.659178584
     0.834796985  0.564017958  0.340821430
     0.814017958  0.973196528  0.229220973
     0.743975547  0.584796971  0.770779005
     0.915203029  0.756024453  0.229220995
     0.526803472  0.685982042  0.770779027
     0.006024445  0.276803458  0.340821416
     0.935982034  0.665203029  0.659178576
     0.807878160  0.965545813  0.952691896
     0.012853895  0.855186271  0.047308089
     0.105186257  0.557878145  0.342332339
     0.215545799  0.762853910  0.657667646
     0.737146090  0.284454201  0.342332354
     0.942121855  0.394813743  0.657667661
     0.534454194  0.692121847  0.047308104
     0.644813736  0.487146082  0.952691881
     0.442121855  0.784454201  0.547308119
     0.237146112  0.894813743  0.452691918
     0.144813736  0.192121847  0.157667646
     0.034454194  0.987146112  0.842332369
     0.512853888  0.465545806  0.157667631
     0.307878153  0.355186264  0.842332354
     0.715545799  0.057878175  0.452691911
     0.605186264  0.262853910  0.547308111
     0.206546828  0.579272028  0.929029526
     0.650242502  0.277517302  0.070970474
     0.527517302  0.956546828  0.127274801
     0.829272028  0.400242502  0.872725199
     0.099757498  0.670727972  0.127274801
     0.543453172  0.972482698  0.872725199
     0.920727972  0.293453172  0.070970474
     0.222482698  0.849757468  0.929029496
     0.043453172  0.170727972  0.570970474
     0.599757498  0.472482698  0.429029526
     0.722482698  0.793453202  0.372725229
     0.420727972  0.349757498  0.627274801
     0.150242532  0.079272028  0.372725229
     0.706546828  0.777517302  0.627274801
     0.329272028  0.456546828  0.429029526
     0.027517302  0.900242532  0.570970504

  ion indices of the primitive-cell ions
   primitive index   ion index
                 1           1
                 2          18
                 3          19
                 4          20
                 5           5
                 6           6
                 7          23
                 8          24
                 9           9
                10          10
                11          11
                12          28
                13          13
                14          14
                15          15
                16          32
                17          33
                18          34
                19          37
                20          38
                21          47
                22          42
                23          45
                24          46
                25          49
                26          51
                27          54
                28          56
                29          57
                30          58
                31          67
                32          68
                33          61
                34          70
                35          71
                36          72
                37          73
                38          76
                39          77
                40          79
                41          81
                42          94
                43          89
                44          84
                45          85
                46          86
                47          87
                48          92
                49          97
                50         114
                51          99
                52         116
                53         117
                54         102
                55         119
                56         104
                57         105
                58         106
                59         107
                60         124
                61         125
                62         110
                63         111
                64         128
                65         129
                66         146
                67         147
                68         148
                69         133
                70         134
                71         151
                72         152
                73         137
                74         154
                75         139
                76         156
                77         157
                78         142
                79         159
                80         144
                81         161
                82         162
                83         179
                84         180
                85         165
                86         166
                87         183
                88         168
                89         169
                90         170
                91         187
                92         172
                93         189
                94         174
                95         175
                96         192

----------------------------------------------------------------------------------------



 KPOINTS: K-Points

Automatic generation of k-mesh.
 Grid dimensions read from file:
 generate k-points for:    1    1    1

 Generating k-lattice:

  Cartesian coordinates                     Fractional coordinates (reciprocal lattice)
     0.076626954  0.000000000  0.000000000     1.000000000  0.000000000  0.000000000
     0.000000000  0.076626954  0.000000000     0.000000000  1.000000000  0.000000000
     0.000000000  0.000000000  0.079827623     0.000000000  0.000000000  1.000000000

  Length of vectors
     0.076626954  0.076626954  0.079827623

  Shift w.r.t. Gamma in fractional coordinates (k-lattice)
     0.000000000  0.000000000  0.000000000


 Subroutine IBZKPT returns following result:
 ===========================================

 Found      1 irreducible k-points:

 Following reciprocal coordinates:
            Coordinates               Weight
  0.000000  0.000000  0.000000      1.000000

 Following cartesian coordinates:
            Coordinates               Weight
  0.000000  0.000000  0.000000      1.000000



--------------------------------------------------------------------------------------------------------




 Dimension of arrays:
   k-points           NKPTS =      1   k-points in BZ     NKDIM =      1   number of bands    NBANDS=    720
   number of dos      NEDOS =    301   number of ions     NIONS =    192
   non local maximal  LDIM  =      8   non local SUM 2l+1 LMDIM =     32
   total plane-waves  NPLWV = 362880
   max r-space proj   IRMAX =   3029   max aug-charges    IRDMAX=   9086
   dimension x,y,z NGX =    72 NGY =   72 NGZ =   70
   dimension x,y,z NGXF=   144 NGYF=  144 NGZF=  140
   support grid    NGXF=   144 NGYF=  144 NGZF=  140
   ions per type =              56  24  16  96
   NGX,Y,Z   is equivalent  to a cutoff of   9.17,  9.17,  9.29 a.u.
   NGXF,Y,Z  is equivalent  to a cutoff of  18.34, 18.34, 18.58 a.u.

 SYSTEM =  unknown system
 POSCAR =  Li56 La24 Zr16 O96

 Startparameter for this run:
   NWRITE =      2    write-flag & timer
   PREC   = normal    normal or accurate (medium, high low for compatibility)
   ISTART =      0    job   : 0-new  1-cont  2-samecut
   ICHARG =      2    charge: 1-file 2-atom 10-const
   ISPIN  =      1    spin polarized calculation?
   LNONCOLLINEAR =      F non collinear calculations
   LSORBIT =      F    spin-orbit coupling
   INIWAV =      1    electr: 0-lowe 1-rand  2-diag
   LASPH  =      F    aspherical Exc in radial PAW
 Electronic Relaxation 1
   ENCUT  =  500.0 eV  36.75 Ry    6.06 a.u.  23.79 23.79 22.84*2*pi/ulx,y,z
   ENINI  =  500.0     initial cutoff
   ENAUG  =  628.9 eV  augmentation charge cutoff
   NELM   =     80;   NELMIN=  2; NELMDL= -5     # of ELM steps
   EDIFF  = 0.1E-04   stopping-criterion for ELM
   LREAL  =      T    real-space projection
   NLSPLINE    = F    spline interpolate recip. space projectors
   LCOMPAT=      F    compatible to vasp.4.4
   GGA_COMPAT  = T    GGA compatible to vasp.4.4-vasp.4.6
   LMAXPAW     = -100 max onsite density
   LMAXMIX     =    2 max onsite mixed and CHGCAR
   VOSKOWN=      0    Vosko Wilk Nusair interpolation
   ROPT   =   -0.00050  -0.00050  -0.00050  -0.00050
 Ionic relaxation
   EDIFFG = -.1E-01   stopping-criterion for IOM
   NSW    =    100    number of steps for IOM
   NBLOCK =      1;   KBLOCK =    100    inner block; outer block
   IBRION =      2    ionic relax: 0-MD 1-quasi-New 2-CG
   NFREE  =      1    steps in history (QN), initial steepest desc. (CG)
   ISIF   =      3    stress and relaxation
   IWAVPR =     11    prediction:  0-non 1-charg 2-wave 3-comb
   ISYM   =      2    0-nonsym 1-usesym 2-fastsym
   LCORR  =      T    Harris-Foulkes like correction to forces

   POTIM  = 0.5000    time-step for ionic-motion
   TEIN   =    0.0    initial temperature
   TEBEG  =    0.0;   TEEND  =   0.0 temperature during run
   SMASS  =  -3.00    Nose mass-parameter (am)
   estimated Nose-frequenzy (Omega)   =  0.10E-29 period in steps = 0.13E+47 mass=  -0.389E-26a.u.
   SCALEE = 1.0000    scale energy and forces
   NPACO  =    256;   APACO  = 10.0  distance and # of slots for P.C.
   PSTRESS=    0.0 pullay stress

  Mass of Ions in am
   POMASS =   7.01138.90 91.22 16.00
  Ionic Valenz
   ZVAL   =   3.00 11.00 12.00  6.00
  Atomic Wigner-Seitz radii
   RWIGS  =  -1.00 -1.00 -1.00 -1.00
  virtual crystal weights
   VCA    =   1.00  1.00  1.00  1.00
   NELECT =    1200.0000    total number of electrons
   NUPDOWN=      -1.0000    fix difference up-down

 DOS related values:
   EMIN   =  10.00;   EMAX   =-10.00  energy-range for DOS
   EFERMI =   0.00
   ISMEAR =     0;   SIGMA  =   0.10  broadening in eV -4-tet -1-fermi 0-gaus

 Electronic relaxation 2 (details)
   IALGO  =     38    algorithm
   LDIAG  =      T    sub-space diagonalisation (order eigenvalues)
   LSUBROT=      F    optimize rotation matrix (better conditioning)
   TURBO    =      0    0=normal 1=particle mesh
   IRESTART =      0    0=no restart 2=restart with 2 vectors
   NREBOOT  =      0    no. of reboots
   NMIN     =      0    reboot dimension
   EREF     =   0.00    reference energy to select bands
   IMIX   =      4    mixing-type and parameters
     AMIX     =   0.40;   BMIX     =  1.00
     AMIX_MAG =   1.60;   BMIX_MAG =  1.00
     AMIN     =   0.10
     WC   =   100.;   INIMIX=   1;  MIXPRE=   1;  MAXMIX= -45

 Intra band minimization:
   WEIMIN = 0.0010     energy-eigenvalue tresh-hold
   EBREAK =  0.35E-08  absolut break condition
   DEPER  =   0.30     relativ break condition

   TIME   =   0.40     timestep for ELM

  volume/ion in A,a.u.               =      11.11        74.99
  Fermi-wavevector in a.u.,A,eV,Ry     =   1.351369  2.553718 24.846943  1.826199
  Thomas-Fermi vector in A             =   2.478797

 Write flags
   LWAVE        =      F    write WAVECAR
   LDOWNSAMPLE  =      F    k-point downsampling of WAVECAR
   LCHARG       =      F    write CHGCAR
   LVTOT        =      F    write LOCPOT, total local potential
   LVHAR        =      F    write LOCPOT, Hartree potential only
   LELF         =      F    write electronic localiz. function (ELF)
   LORBIT       =      0    0 simple, 1 ext, 2 COOP (PROOUT), +10 PAW based schemes


 Dipole corrections
   LMONO  =      F    monopole corrections only (constant potential shift)
   LDIPOL =      F    correct potential (dipole corrections)
   IDIPOL =      0    1-x, 2-y, 3-z, 4-all directions
   EPSILON=  1.0000000 bulk dielectric constant

 Exchange correlation treatment:
   GGA     =    --    GGA type
   LEXCH   =     8    internal setting for exchange type
   LIBXC   =     F    Libxc
   VOSKOWN =     0    Vosko Wilk Nusair interpolation
   LHFCALC =     F    Hartree Fock is set to
   LHFONE  =     F    Hartree Fock one center treatment
   AEXX    =    0.0000 exact exchange contribution

 Linear response parameters
   LEPSILON=     F    determine dielectric tensor
   LRPA    =     F    only Hartree local field effects (RPA)
   LNABLA  =     F    use nabla operator in PAW spheres
   LVEL    =     F    velocity operator in full k-point grid
   CSHIFT  =0.1000    complex shift for real part using Kramers Kronig
   OMEGAMAX=  -1.0    maximum frequency
   DEG_THRESHOLD= 0.2000000E-02 threshold for treating states as degnerate
   RTIME   =   -0.100 relaxation time in fs
  (WPLASMAI=    0.000 imaginary part of plasma frequency in eV, 0.658/RTIME)
   DFIELD  = 0.0000000 0.0000000 0.0000000 field for delta impulse in time

  Optional k-point grid parameters
   LKPOINTS_OPT  =     F    use optional k-point grid
   KPOINTS_OPT_MODE=     1    mode for optional k-point grid

 Orbital magnetization related:
   ORBITALMAG=     F  switch on orbital magnetization
   LCHIMAG   =     F  perturbation theory with respect to B field
   DQ        =  0.001000  dq finite difference perturbation B field
   LLRAUG    =     F  two centre corrections for induced B field



--------------------------------------------------------------------------------------------------------


 conjugate gradient relaxation of ions
 charge density and potential will be updated during run
 non-spin polarized calculation
 Variant of blocked Davidson
 Davidson routine will perform the subspace rotation
 perform sub-space diagonalisation
    after iterative eigenvector-optimisation
 modified Broyden-mixing scheme, WC =      100.0
 initial mixing is a Kerker type mixing with AMIX =  0.4000 and BMIX =      1.0000
 Hartree-type preconditioning will be used
 using additional bands          120
 real space projection scheme for non local part
 use partial core corrections
 calculate Harris-corrections to forces
   (improved forces if not selfconsistent)
 use gradient corrections
 use of overlap-Matrix (Vanderbilt PP)
 Gauss-broadening in eV      SIGMA  =   0.10


--------------------------------------------------------------------------------------------------------


  energy-cutoff  :      500.00
  volume of cell :     2133.46
      direct lattice vectors                 reciprocal lattice vectors
    13.0502380940.000000000  0.000000000     0.076626954  0.000000000  0.000000000
     0.000000000 13.050238094  0.000000000     0.000000000  0.076626954  0.000000000
     0.000000000  0.000000000 12.526992113     0.000000000  0.000000000  0.079827623

  length of vectors
    13.050238094 13.050238094 12.526992113     0.076626954  0.076626954  0.079827623



 k-points in units of 2pi/SCALE and weight: K-Points
   0.00000000  0.00000000  0.00000000       1.000

 k-points in reciprocal lattice and weights: K-Points
   0.00000000  0.00000000  0.00000000       1.000

 position of ions in fractional coordinates (direct lattice)
   0.08010399  0.16270233  0.93098503
   0.41989600  0.33729765  0.43098503
   0.83729765  0.58010400  0.18098503
   0.66270235  0.91989600  0.68098503
   0.41989600  0.16270233  0.31901497
   0.08010399  0.33729765  0.81901497
   0.66270235  0.58010400  0.06901497
   0.83729765  0.91989600  0.56901497
   0.91989600  0.33729765  0.31901497
   0.58010400  0.16270233  0.81901497
   0.16270233  0.91989600  0.06901497
   0.33729765  0.58010400  0.56901497
   0.58010400  0.33729765  0.93098503
   0.91989600  0.16270233  0.43098503
   0.33729765  0.91989600  0.18098503
   0.16270233  0.58010400  0.68098503
   0.58010400  0.66270235  0.43098503
   0.91989600  0.83729765  0.93098503
   0.33729765  0.08010399  0.68098503
   0.16270233  0.41989600  0.18098503
   0.91989600  0.66270235  0.81901497
   0.58010400  0.83729765  0.31901497
   0.16270233  0.08010399  0.56901497
   0.33729765  0.41989600  0.06901497
   0.41989600  0.83729765  0.81901497
   0.08010399  0.66270235  0.31901497
   0.66270235  0.41989600  0.56901497
   0.83729765  0.08010399  0.06901497
   0.08010399  0.83729765  0.43098503
   0.41989600  0.66270235  0.93098503
   0.83729765  0.41989600  0.68098503
   0.66270235  0.08010399  0.18098503
   0.18028342  0.18028342  0.75000000
   0.31971658  0.31971658  0.25000000
   0.81971658  0.68028342  0.00000000
   0.68028342  0.81971658  0.50000000
   0.31971658  0.18028342  0.50000000
   0.18028342  0.31971658  0.00000000
   0.68028342  0.68028342  0.25000000
   0.81971658  0.81971658  0.75000000
   0.81971658  0.31971658  0.50000000
   0.68028342  0.18028342  0.00000000
   0.18028342  0.81971658  0.25000000
   0.31971658  0.68028342  0.75000000
   0.68028342  0.31971658  0.75000000
   0.81971658  0.18028342  0.25000000
   0.31971658  0.81971658  0.00000000
   0.18028342  0.68028342  0.50000000
   0.00000000  0.00000000  0.00000000
   0.50000000  0.50000000  0.50000000
   0.00000000  0.50000000  0.25000000
   0.50000000  0.00000000  0.75000000
   0.50000000  0.00000000  0.25000000
   0.00000000  0.50000000  0.75000000
   0.50000000  0.50000000  0.00000000
   0.00000000  0.00000000  0.50000000
   0.12775980  0.25000000  0.37500000
   0.37224020  0.25000000  0.87500000
   0.75000000  0.62775980  0.62500000
   0.75000000  0.87224020  0.12500000
   0.87224020  0.25000000  0.87500000
   0.62775980  0.25000000  0.37500000
   0.25000000  0.87224020  0.62500000
   0.25000000  0.62775980  0.12500000
   0.62775980  0.75000000  0.87500000
   0.87224020  0.75000000  0.37500000
   0.25000000  0.12775980  0.12500000
   0.25000000  0.37224020  0.62500000
   0.37224020  0.75000000  0.37500000
   0.12775980  0.75000000  0.87500000
   0.75000000  0.37224020  0.12500000
   0.75000000  0.12775980  0.62500000
   0.00000000  0.00000000  0.25000000
   0.50000000  0.50000000  0.75000000
   0.00000000  0.50000000  0.50000000
   0.50000000  0.00000000  0.00000000
   0.00000000  0.50000000  0.00000000
   0.50000000  0.00000000  0.50000000
   0.00000000  0.00000000  0.75000000
   0.50000000  0.50000000  0.25000000
   0.00000000  0.25000000  0.12500000
   0.50000000  0.25000000  0.62500000
   0.75000000  0.50000000  0.37500000
   0.75000000  0.00000000  0.87500000
   0.50000000  0.25000000  0.12500000
   0.00000000  0.25000000  0.62500000
   0.75000000  0.50000000  0.87500000
   0.75000000  0.00000000  0.37500000
   0.25000000  0.00000000  0.87500000
   0.25000000  0.50000000  0.37500000
   0.25000000  0.00000000  0.37500000
   0.25000000  0.50000000  0.87500000
   0.50000000  0.75000000  0.62500000
   0.00000000  0.75000000  0.12500000
   0.00000000  0.75000000  0.62500000
   0.50000000  0.75000000  0.12500000
   0.03502121  0.19419977  0.77899676
   0.46497880  0.30580021  0.27899676
   0.80580021  0.53502120  0.02899676
   0.69419979  0.96497880  0.52899676
   0.46497880  0.19419977  0.47100324
   0.03502121  0.30580021  0.97100324
   0.69419979  0.53502120  0.22100324
   0.80580021  0.96497880  0.72100324
   0.96497880  0.30580021  0.47100324
   0.53502120  0.19419977  0.97100324
   0.19419977  0.96497880  0.22100324
   0.30580021  0.53502120  0.72100324
   0.53502120  0.30580021  0.77899676
   0.96497880  0.19419977  0.27899676
   0.30580021  0.96497880  0.02899676
   0.19419977  0.53502120  0.52899676
   0.53502120  0.69419979  0.27899676
   0.96497880  0.80580021  0.77899676
   0.30580021  0.03502121  0.52899676
   0.19419977  0.46497880  0.02899676
   0.96497880  0.69419979  0.97100324
   0.53502120  0.80580021  0.47100324
   0.19419977  0.03502121  0.72100324
   0.30580021  0.46497880  0.22100324
   0.46497880  0.80580021  0.97100324
   0.03502121  0.69419979  0.47100324
   0.69419979  0.46497880  0.72100324
   0.80580021  0.03502121  0.22100324
   0.03502121  0.80580021  0.27899676
   0.46497880  0.69419979  0.77899676
   0.80580021  0.46497880  0.52899676
   0.69419979  0.03502121  0.02899676
   0.05517977  0.10248788  0.08963396
   0.44482023  0.39751211  0.58963397
   0.89751214  0.55517977  0.33963397
   0.60248786  0.94482023  0.83963397
   0.44482023  0.10248788  0.16036603
   0.05517977  0.39751211  0.66036603
   0.60248786  0.55517977  0.91036603
   0.89751214  0.94482023  0.41036603
   0.94482023  0.39751211  0.16036603
   0.55517977  0.10248788  0.66036603
   0.10248788  0.94482023  0.91036603
   0.39751211  0.55517977  0.41036603
   0.55517977  0.39751211  0.08963396
   0.94482023  0.10248788  0.58963397
   0.39751211  0.94482023  0.33963397
   0.10248788  0.55517977  0.83963397
   0.55517977  0.60248786  0.58963397
   0.94482023  0.89751214  0.08963396
   0.39751211  0.05517977  0.83963397
   0.10248788  0.44482023  0.33963397
   0.94482023  0.60248786  0.66036603
   0.55517977  0.89751214  0.16036603
   0.10248788  0.05517977  0.41036603
   0.39751211  0.44482023  0.91036603
   0.44482023  0.89751214  0.66036603
   0.05517977  0.60248786  0.16036603
   0.60248786  0.44482023  0.41036603
   0.89751214  0.05517977  0.91036603
   0.05517977  0.89751214  0.58963397
   0.44482023  0.60248786  0.08963396
   0.89751214  0.44482023  0.83963397
   0.60248786  0.05517977  0.33963397
   0.15087736  0.22184784  0.57160534
   0.34912264  0.27815216  0.07160534
   0.77815213  0.65087736  0.82160534
   0.72184787  0.84912264  0.32160534
   0.34912264  0.22184784  0.67839466
   0.15087736  0.27815216  0.17839466
   0.72184787  0.65087736  0.42839466
   0.77815213  0.84912264  0.92839466
   0.84912264  0.27815216  0.67839466
   0.65087736  0.22184784  0.17839466
   0.22184784  0.84912264  0.42839466
   0.27815216  0.65087736  0.92839466
   0.65087736  0.27815216  0.57160534
   0.84912264  0.22184784  0.07160534
   0.27815216  0.84912264  0.82160534
   0.22184784  0.65087736  0.32160534
   0.65087736  0.72184787  0.07160534
   0.84912264  0.77815213  0.57160534
   0.27815216  0.15087736  0.32160534
   0.22184784  0.34912264  0.82160534
   0.84912264  0.72184787  0.17839466
   0.65087736  0.77815213  0.67839466
   0.22184784  0.15087736  0.92839466
   0.27815216  0.34912264  0.42839466
   0.34912264  0.77815213  0.17839466
   0.15087736  0.72184787  0.67839466
   0.72184787  0.34912264  0.92839466
   0.77815213  0.15087736  0.42839466
   0.15087736  0.77815213  0.07160534
   0.34912264  0.72184787  0.57160534
   0.77815213  0.34912264  0.32160534
   0.72184787  0.15087736  0.82160534

 position of ions in cartesian coordinates  (Angst):
   1.04537620  2.12330417 11.66244215
   5.47974274  I'm wrong  5.39894610
  10.92693373  7.57049536  2.26719807
   8.64842341 12.00486178  8.53069413
   5.47974274  2.12330417  3.99629799
   1.04537620  4.40181468 10.25979404
   8.64842341  7.57049536  0.86454996
  10.92693373 12.00486178  7.12804602
  12.00486178  4.40181468  3.99629799
   7.57049536  2.12330417 10.25979404
   2.12330417 12.00486178  0.86454996
   4.40181468  7.57049536  7.12804602
   7.57049536  4.40181468 11.66244215
  12.00486178  2.12330417  5.39894610
   4.40181468 12.00486178  2.26719807
   2.12330417  7.57049536  8.53069413
   7.57049536  8.64842341  5.39894610
  12.00486178 10.92693373 11.66244215
   4.40181468  1.04537620  8.53069413
   2.12330417  5.47974274  2.26719807
  12.00486178  8.64842341 10.25979404
   7.57049536 10.92693373  3.99629799
   2.12330417  1.04537620  7.12804602
   4.40181468  5.47974274  0.86454996
   5.47974274 10.92693373 10.25979404
   1.04537620  8.64842341  3.99629799
   8.64842341  5.47974274  7.12804602
  10.92693373  1.04537620  0.86454996
   1.04537620 10.92693373  5.39894610
   5.47974274  8.64842341 11.66244215
  10.92693373  5.47974274  8.53069413
   8.64842341  1.04537620  2.26719807
   2.35274158  2.35274158  9.39524408
   4.17237747  4.17237747  3.13174803
  10.69749651  8.87786063  0.00000000
   8.87786063 10.69749651  6.26349606
   4.17237747  2.35274158  6.26349606
   2.35274158  4.17237747  0.00000000
   8.87786063  8.87786063  3.13174803
  10.69749651 10.69749651  9.39524408
  10.69749651  4.17237747  6.26349606
   8.87786063  2.35274158  0.00000000
   2.35274158 10.69749651  3.13174803
   4.17237747  8.87786063  9.39524408
   8.87786063  4.17237747  9.39524408
  10.69749651  2.35274158  3.13174803
   4.17237747 10.69749651  0.00000000
   2.35274158  8.87786063  6.26349606
   0.00000000  0.00000000  0.00000000
   6.52511905  6.52511905  6.26349606
   0.00000000  6.52511905  3.13174803
   6.52511905  0.00000000  9.39524408
   6.52511905  0.00000000  3.13174803
   0.00000000  6.52511905  9.39524408
   6.52511905  6.52511905  0.00000000
   0.00000000  0.00000000  6.26349606
   1.66729582  3.26255952  4.69762204
   4.85782323  3.26255952 10.96111810
   9.78767857  8.19241487  7.82937007
   9.78767857 11.38294227  1.56587401
  11.38294227  3.26255952 10.96111810
   8.19241487  3.26255952  4.69762204
   3.26255952 11.38294227  7.82937007
   3.26255952  8.19241487  1.56587401
   8.19241487  9.78767857 10.96111810
  11.38294227  9.78767857  4.69762204
   3.26255952  1.66729582  1.56587401
   3.26255952  4.85782323  7.82937007
   4.85782323  9.78767857  4.69762204
   1.66729582  9.78767857 10.96111810
   9.78767857  4.85782323  1.56587401
   9.78767857  1.66729582  7.82937007
   0.00000000  0.00000000  3.13174803
   6.52511905  6.52511905  9.39524408
   0.00000000  6.52511905  6.26349606
   6.52511905  0.00000000  0.00000000
   0.00000000  6.52511905  0.00000000
   6.52511905  0.00000000  6.26349606
   0.00000000  0.00000000  9.39524408
   6.52511905  6.52511905  3.13174803
   0.00000000  3.26255952  1.56587401
   6.52511905  3.26255952  7.82937007
   9.78767857  6.52511905  4.69762204
   9.78767857  0.00000000 10.96111810
   6.52511905  3.26255952  1.56587401
   0.00000000  3.26255952  7.82937007
   9.78767857  6.52511905 10.96111810
   9.78767857  0.00000000  4.69762204
   3.26255952  0.00000000 10.96111810
   3.26255952  6.52511905  4.69762204
   3.26255952  0.00000000  4.69762204
   3.26255952  6.52511905 10.96111810
   6.52511905  9.78767857  7.82937007
   0.00000000  9.78767857  1.56587401
   0.00000000  9.78767857  7.82937007
   6.52511905  9.78767857  1.56587401
   0.45703512  2.53435325  9.75848622
   6.06808403  3.99076561  3.49499017
  10.51588466  6.98215406  0.36324214
   9.05947248 12.59320308  6.62673820
   6.06808403  2.53435325  5.90025392
   0.45703512  3.99076561 12.16374997
   9.05947248  6.98215406  2.76850589
  10.51588466 12.59320308  9.03200194
  12.59320308  3.99076561  5.90025392
   6.98215406  2.53435325 12.16374997
   2.53435325 12.59320308  2.76850589
   3.99076561  6.98215406  9.03200194
   6.98215406  3.99076561  9.75848622
  12.59320308  2.53435325  3.49499017
   3.99076561 12.59320308  0.36324214
   2.53435325  6.98215406  6.62673820
   6.98215406  9.05947248  3.49499017
  12.59320308 10.51588466  9.75848622
   3.99076561  0.45703512  6.62673820
   2.53435325  6.06808403  0.36324214
  12.59320308  9.05947248 12.16374997
   6.98215406 10.51588466  5.90025392
   2.53435325  0.45703512  9.03200194
   3.99076561  6.06808403  2.76850589
   6.06808403 10.51588466 12.16374997
   0.45703512  9.05947248  5.90025392
   9.05947248  6.06808403  9.03200194
  10.51588466  0.45703512  2.76850589
   0.45703512 10.51588466  3.49499017
   6.06808403  9.05947248  9.75848622
  10.51588466  6.06808403  6.62673820
   9.05947248  0.45703512  0.36324214
   0.72010919  1.33749122  1.12284393
   5.80500995  5.18762772  7.38634007
  11.71274716  7.24522815  4.25459204
   7.86260998 12.33012899 10.51808810
   5.80500995  1.33749122  2.00890401
   0.72010919  5.18762772  8.27240007
   7.86260998  7.24522815 11.40414810
  11.71274716 12.33012899  5.14065204
  12.33012899  5.18762772  2.00890401
   7.24522815  1.33749122  8.27240007
   1.33749122 12.33012899 11.40414810
   5.18762772  7.24522815  5.14065204
   7.24522815  5.18762772  1.12284393
  12.33012899  1.33749122  7.38634007
   5.18762772 12.33012899  4.25459204
   1.33749122  7.24522815 10.51808810
   7.24522815  7.86260998  7.38634007
  12.33012899 11.71274716  1.12284393
   5.18762772  0.72010919 10.51808810
   1.33749122  5.80500995  4.25459204
  12.33012899  7.86260998  8.27240007
   7.24522815 11.71274716  2.00890401
   1.33749122  0.72010919  5.14065204
   5.18762772  5.80500995 11.40414810
   5.80500995 11.71274716  8.27240007
   0.72010919  7.86260998  2.00890401
   7.86260998  5.80500995  5.14065204
  11.71274716  0.72010919 11.40414810
   0.72010919 11.71274716  7.38634007
   5.80500995  7.86260998  1.12284393
  11.71274716  5.80500995 10.51808810
   7.86260998  0.72010919  4.25459204
   1.96898551  2.89516709  7.16049552
   4.55613354  3.62995196  0.89699947
  10.15507061  8.49410455 10.29224355
   9.42028653 11.08125259  4.02874750
   4.55613354  2.89516709  8.49824462
   1.96898551  3.62995196  2.23474856
   9.42028653  8.49410455  5.36649659
  10.15507061 11.08125259 11.62999264
  11.08125259  3.62995196  8.49824462
   8.49410455  2.89516709  2.23474856
   2.89516709 11.08125259  5.36649659
   3.62995196  8.49410455 11.62999264
   8.49410455  3.62995196  7.16049552
  11.08125259  2.89516709  0.89699947
   3.62995196 11.08125259 10.29224355
   2.89516709  8.49410455  4.02874750
   8.49410455  9.42028653  0.89699947
  11.08125259 10.15507061  7.16049552
   3.62995196  1.96898551  4.02874750
   2.89516709  4.55613354 10.29224355
  11.08125259  9.42028653  2.23474856
   8.49410455 10.15507061  8.49824462
   2.89516709  1.96898551 11.62999264
   3.62995196  4.55613354  5.36649659
   4.55613354 10.15507061  2.23474856
   1.96898551  9.42028653  8.49824462
   9.42028653  4.55613354 11.62999264
  10.15507061  1.96898551  5.36649659
   1.96898551 10.15507061  0.89699947
   4.55613354  9.42028653  7.16049552
  10.15507061  4.55613354  4.02874750
   9.42028653  1.96898551 10.29224355



--------------------------------------------------------------------------------------------------------


 use parallel FFT for orbitals z direction half grid
 k-point   1 :   0.0000 0.0000 0.0000  plane waves:   27057

 maximum and minimum number of plane-waves per node :      3390     3373

 maximum number of plane-waves:     27057
 maximum index in each direction:
   IXMAX=   23   IYMAX=   23   IZMAX=   22
   IXMIN=  -23   IYMIN=  -23   IZMIN=    0


 real space projection operators:
  total allocation   :      28407.16 KBytes
  max/ min on nodes  :       3557.64       3542.53


 parallel 3D FFT for wavefunctions:
    minimum data exchange during FFTs selected (reduces bandwidth)
 parallel 3D FFT for charge:
    minimum data exchange during FFTs selected (reduces bandwidth)


 total amount of memory used by VASP MPI-rank0    49181. kBytes
=======================================================================

   base      :      30000. kBytes
   nonlr-proj:       4371. kBytes
   fftplans  :       2943. kBytes
   grid      :       6227. kBytes
   one-center:        589. kBytes
   wavefun   :       5051. kBytes

     INWAV:  cpu time      0.0000: real time      0.0000
 Broyden mixing: mesh for mixing (old mesh)
   NGX = 47   NGY = 47   NGZ = 45
  (NGX  =144   NGY  =144   NGZ  =140)
  gives a total of  99405 points

 initial charge density was supplied:
 charge density of overlapping atoms calculated
 number of electron    1200.0000000 magnetization
 keeping initial charge density in first step


--------------------------------------------------------------------------------------------------------


 Maximum index for non-local projection operator          392
 Maximum index for augmentation-charges          509 (set IRDMAX)


--------------------------------------------------------------------------------------------------------


 First call to EWALD:  gamma=   0.138
 Maximum number of real-space cells 3x 3x 3
 Maximum number of reciprocal cells 3x 3x 3

    FEWALD:  cpu time      0.0148: real time      0.0202


--------------------------------------- Iteration      1(   1)  ---------------------------------------


    POTLOK:  cpu time      0.0405: real time      0.0447
    SETDIJ:  cpu time      0.0162: real time      0.0222
     EDDAV:  cpu time      3.9026: real time      3.9634
       DOS:  cpu time      0.0012: real time      0.0026
    --------------------------------------------
      LOOP:  cpu time      3.9604: real time      4.0331

 eigenvalue-minimisations  :  1488
 total energy-change (2. order) : 0.3120338E+05  (-0.4300168E+05)
 number of electron    1200.0000000 magnetization
 augmentation part     1200.0000000 magnetization

 Free energy of the ion-electron system (eV)
  ---------------------------------------------------
  alpha Z        PSCENC =      4127.32586889
  Ewald energy   TEWEN  =    -75044.68704046
  -Hartree energ DENC   =    -17701.63994992
  -exchange      EXHF   =         0.00000000
  -V(xc)+E(xc)   XCENC  =      4931.62340405
  PAW double counting   =     69254.24716809   -69970.07330829
  entropy T*S    EENTRO =        -0.00000539
  eigenvalues    EBANDS =     21414.28588518
  atomic energy  EATOM  =     94192.30127900
  Solvation  Ediel_sol  =         0.00000000
  ---------------------------------------------------
  free energy    TOTEN  =     31203.38330116 eV

  energy without entropy =    31203.38330655  energy(sigma->0) =    31203.38330386


--------------------------------------------------------------------------------------------------------




--------------------------------------- Iteration      1(   2)  ---------------------------------------


     EDDAV:  cpu time      4.0059: real time      4.0378
       DOS:  cpu time      0.0008: real time      0.0008
    --------------------------------------------
      LOOP:  cpu time      4.0067: real time      4.0384

 eigenvalue-minimisations  :  1536
 total energy-change (2. order) :-0.2081156E+05  (-0.1939872E+05)
 number of electron    1200.0000000 magnetization
 augmentation part     1200.0000000 magnetization

 Free energy of the ion-electron system (eV)
  ---------------------------------------------------
  alpha Z        PSCENC =      4127.32586889
  Ewald energy   TEWEN  =    -75044.68704046
  -Hartree energ DENC   =    -17701.63994992
  -exchange      EXHF   =         0.00000000
  -V(xc)+E(xc)   XCENC  =      4931.62340405
  PAW double counting   =     69254.24716809   -69970.07330829
  entropy T*S    EENTRO =        -0.11668286
  eigenvalues    EBANDS =       602.83967139
  atomic energy  EATOM  =     94192.30127900
  Solvation  Ediel_sol  =         0.00000000
  ---------------------------------------------------
  free energy    TOTEN  =     10391.82040989 eV

  energy without entropy =    10391.93709275  energy(sigma->0) =    10391.87875132


--------------------------------------------------------------------------------------------------------




--------------------------------------- Iteration      1(   3)  ---------------------------------------


     EDDAV:  cpu time      4.1637: real time      4.1959
       DOS:  cpu time      0.0007: real time      0.0007
    --------------------------------------------
      LOOP:  cpu time      4.1644: real time      4.1966

 eigenvalue-minimisations  :  1576
 total energy-change (2. order) :-0.7778167E+04  (-0.6941708E+04)
 number of electron    1200.0000000 magnetization
 augmentation part     1200.0000000 magnetization

 Free energy of the ion-electron system (eV)
  ---------------------------------------------------
  alpha Z        PSCENC =      4127.32586889
  Ewald energy   TEWEN  =    -75044.68704046
  -Hartree energ DENC   =    -17701.63994992
  -exchange      EXHF   =         0.00000000
  -V(xc)+E(xc)   XCENC  =      4931.62340405
  PAW double counting   =     69254.24716809   -69970.07330829
  entropy T*S    EENTRO =        -0.74458449
  eigenvalues    EBANDS =     -7174.69903104
  atomic energy  EATOM  =     94192.30127900
  Solvation  Ediel_sol  =         0.00000000
  ---------------------------------------------------
  free energy    TOTEN  =      2613.65380583 eV

  energy without entropy =     2614.39839033  energy(sigma->0) =     2614.02609808


--------------------------------------------------------------------------------------------------------




--------------------------------------- Iteration      1(   4)  ---------------------------------------


     EDDAV:  cpu time      5.2683: real time      5.3112
       DOS:  cpu time      0.0006: real time      0.0006
    --------------------------------------------
      LOOP:  cpu time      5.2689: real time      5.3118

 eigenvalue-minimisations  :  2192
 total energy-change (2. order) :-0.3195105E+04  (-0.2959366E+04)
 number of electron    1200.0000000 magnetization
 augmentation part     1200.0000000 magnetization

 Free energy of the ion-electron system (eV)
  ---------------------------------------------------
  alpha Z        PSCENC =      4127.32586889
  Ewald energy   TEWEN  =    -75044.68704046
  -Hartree energ DENC   =    -17701.63994992
  -exchange      EXHF   =         0.00000000
  -V(xc)+E(xc)   XCENC  =      4931.62340405
  PAW double counting   =     69254.24716809   -69970.07330829
  entropy T*S    EENTRO =        -0.03698910
  eigenvalues    EBANDS =    -10370.51210422
  atomic energy  EATOM  =     94192.30127900
  Solvation  Ediel_sol  =         0.00000000
  ---------------------------------------------------
  free energy    TOTEN  =      -581.45167195 eV

  energy without entropy =     -581.41468285  energy(sigma->0) =     -581.43317740


--------------------------------------------------------------------------------------------------------




--------------------------------------- Iteration      1(   5)  ---------------------------------------


     EDDAV:  cpu time      6.5950: real time      6.6458
       DOS:  cpu time      0.0021: real time      0.0021
    CHARGE:  cpu time      0.1146: real time      0.1214
    MIXING:  cpu time      0.0024: real time      0.0054
    --------------------------------------------
      LOOP:  cpu time      6.7141: real time      6.7747

 eigenvalue-minimisations  :  2784
 total energy-change (2. order) :-0.8865656E+03  (-0.8765766E+03)
 number of electron    1200.0001034 magnetization
 augmentation part      126.3456156 magnetization

 Broyden mixing:
  rms(total) = 0.12470E+02    rms(broyden)= 0.12465E+02
  rms(prec ) = 0.13755E+02
  weight for this iteration     100.00

 Free energy of the ion-electron system (eV)
  ---------------------------------------------------
  alpha Z        PSCENC =      4127.32586889
  Ewald energy   TEWEN  =    -75044.68704046
  -Hartree energ DENC   =    -17701.63994992
  -exchange      EXHF   =         0.00000000
  -V(xc)+E(xc)   XCENC  =      4931.62340405
  PAW double counting   =     69254.24716809   -69970.07330829
  entropy T*S    EENTRO =        -0.00000000
  eigenvalues    EBANDS =    -11257.11469785
  atomic energy  EATOM  =     94192.30127900
  Solvation  Ediel_sol  =         0.00000000
  ---------------------------------------------------
  free energy    TOTEN  =     -1468.01727648 eV

  energy without entropy =    -1468.01727648  energy(sigma->0) =    -1468.01727648


--------------------------------------------------------------------------------------------------------




--------------------------------------- Iteration      1(   6)  ---------------------------------------


    POTLOK:  cpu time      0.0368: real time      0.0389
    SETDIJ:  cpu time      0.0136: real time      0.0138
     EDDAV:  cpu time      6.3714: real time      6.4184
       DOS:  cpu time      0.0013: real time      0.0013
    CHARGE:  cpu time      0.1106: real time      0.1115
    MIXING:  cpu time      0.0019: real time      0.0032
    --------------------------------------------
      LOOP:  cpu time      6.5356: real time      6.5870

[...]
   -.396E+02 0.895E+02 -.188E+02   0.410E+02 -.954E+02 0.200E+02   -.147E+01 0.581E+01 -.125E+01   0.399E-03 -.149E-02 0.358E-03
   0.895E+02 -.396E+02 -.188E+02   -.954E+02 0.410E+02 0.200E+02   0.581E+01 -.147E+01 -.125E+01   -.149E-02 0.400E-03 0.358E-03
   -.895E+02 0.396E+02 -.188E+02   0.954E+02 -.410E+02 0.200E+02   -.581E+01 0.147E+01 -.125E+01   0.149E-02 -.399E-03 0.358E-03
   0.396E+02 0.895E+02 -.188E+02   -.410E+02 -.954E+02 0.200E+02   0.147E+01 0.581E+01 -.125E+01   -.399E-03 -.149E-02 0.358E-03
   -.396E+02 -.895E+02 -.188E+02   0.410E+02 0.954E+02 0.200E+02   -.147E+01 -.581E+01 -.125E+01   0.400E-03 0.149E-02 0.358E-03
   -.895E+02 -.396E+02 0.188E+02   0.954E+02 0.410E+02 -.200E+02   -.581E+01 -.147E+01 0.125E+01   0.149E-02 0.400E-03 -.358E-03
   0.895E+02 0.396E+02 0.188E+02   -.954E+02 -.410E+02 -.200E+02   0.581E+01 0.147E+01 0.125E+01   -.149E-02 -.399E-03 -.358E-03
   -.396E+02 0.895E+02 0.188E+02   0.410E+02 -.954E+02 -.200E+02   -.147E+01 0.581E+01 0.125E+01   0.400E-03 -.149E-02 -.358E-03
   0.396E+02 -.895E+02 0.188E+02   -.410E+02 0.954E+02 -.200E+02   0.147E+01 -.581E+01 0.125E+01   -.399E-03 0.149E-02 -.358E-03
 -----------------------------------------------------------------------------------------------
   0.886E-03 0.886E-03 0.434E-03   0.291E-12 -.105E-11 -.561E-12   0.466E-14 0.799E-14 -.444E-15   -.471E-07 -.471E-07 -.721E-08


 POSITION                                       TOTAL-FORCE (eV/Angst)
 -----------------------------------------------------------------------------------
      1.04538      2.12330     11.66244        -0.003392     -0.002942      0.000290
      5.47974      4.40181      5.39895         0.003392      0.002942      0.000290
     10.92693      7.57050      2.26720         0.002942     -0.003392      0.000290
      8.64842     12.00486      8.53069        -0.002942      0.003392      0.000290
      5.47974      2.12330      3.99630         0.003392     -0.002942     -0.000290
      1.04538      4.40181     10.25979        -0.003392      0.002942     -0.000290
      8.64842      7.57050      0.86455        -0.002942     -0.003392     -0.000290
     10.92693     12.00486      7.12805         0.002942      0.003392     -0.000290
     12.00486      4.40181      3.99630         0.003392      0.002942     -0.000290
      7.57050      2.12330     10.25979        -0.003392     -0.002942     -0.000290
      2.12330     12.00486      0.86455        -0.002942      0.003392     -0.000290
      4.40181      7.57050      7.12805         0.002942     -0.003392     -0.000290
      7.57050      4.40181     11.66244        -0.003392      0.002942      0.000290
     12.00486      2.12330      5.39895         0.003392     -0.002942      0.000290
      4.40181     12.00486      2.26720         0.002942      0.003392      0.000290
      2.12330      7.57050      8.53069        -0.002942     -0.003392      0.000290
      7.57050      8.64842      5.39895        -0.003392     -0.002942      0.000290
     12.00486     10.92693     11.66244         0.003392      0.002942      0.000290
      4.40181      1.04538      8.53069         0.002942     -0.003392      0.000290
      2.12330      5.47974      2.26720        -0.002942      0.003392      0.000290
     12.00486      8.64842     10.25979         0.003392     -0.002942     -0.000290
      7.57050     10.92693      3.99630        -0.003392      0.002942     -0.000290
      2.12330      1.04538      7.12805        -0.002942     -0.003392     -0.000290
      4.40181      5.47974      0.86455         0.002942      0.003392     -0.000290
      5.47974     10.92693     10.25979         0.003392      0.002942     -0.000290
      1.04538      8.64842      3.99630        -0.003392     -0.002942     -0.000290
      8.64842      5.47974      7.12805        -0.002942      0.003392     -0.000290
     10.92693      1.04538      0.86455         0.002942     -0.003392     -0.000290
      1.04538     10.92693      5.39895        -0.003392      0.002942      0.000290
      5.47974      8.64842     11.66244         0.003392     -0.002942      0.000290
     10.92693      5.47974      8.53069         0.002942      0.003392      0.000290
      8.64842      1.04538      2.26720        -0.002942     -0.003392      0.000290
      2.35274      2.35274      9.39524        -0.002971     -0.002971     -0.000000
      4.17238      4.17238      3.13175         0.002971      0.002971     -0.000000
     10.69750      8.87786      0.00000         0.002971     -0.002971     -0.000000
      8.87786     10.69750      6.26350        -0.002971      0.002971     -0.000000
      4.17238      2.35274      6.26350         0.002971     -0.002971     -0.000000
      2.35274      4.17238      0.00000        -0.002971      0.002971     -0.000000
      8.87786      8.87786      3.13175        -0.002971     -0.002971     -0.000000
     10.69750     10.69750      9.39524         0.002971      0.002971     -0.000000
     10.69750      4.17238      6.26350         0.002971      0.002971     -0.000000
      8.87786      2.35274      0.00000        -0.002971     -0.002971     -0.000000
      2.35274     10.69750      3.13175        -0.002971      0.002971     -0.000000
      4.17238      8.87786      9.39524         0.002971     -0.002971     -0.000000
      8.87786      4.17238      9.39524        -0.002971      0.002971     -0.000000
     10.69750      2.35274      3.13175         0.002971     -0.002971     -0.000000
      4.17238     10.69750      0.00000         0.002971      0.002971     -0.000000
      2.35274      8.87786      6.26350        -0.002971     -0.002971     -0.000000
      0.00000      0.00000      0.00000         0.000000     -0.000000     -0.000000
      6.52512      6.52512      6.26350         0.000000     -0.000000     -0.000000
      0.00000      6.52512      3.13175         0.000000     -0.000000     -0.000000
      6.52512      0.00000      9.39524         0.000000     -0.000000     -0.000000
      6.52512      0.00000      3.13175         0.000000     -0.000000     -0.000000
      0.00000      6.52512      9.39524         0.000000     -0.000000     -0.000000
      6.52512      6.52512      0.00000         0.000000     -0.000000     -0.000000
      0.00000      0.00000      6.26350         0.000000     -0.000000     -0.000000
      1.66730      3.26256      4.69762         0.001027     -0.000000     -0.000000
      4.85782      3.26256     10.96112        -0.001027     -0.000000     -0.000000
      9.78768      8.19241      7.82937         0.000000      0.001027     -0.000000
      9.78768     11.38294      1.56587         0.000000     -0.001027     -0.000000
     11.38294      3.26256     10.96112        -0.001027     -0.000000     -0.000000
      8.19241      3.26256      4.69762         0.001027     -0.000000     -0.000000
      3.26256     11.38294      7.82937         0.000000     -0.001027     -0.000000
      3.26256      8.19241      1.56587         0.000000      0.001027     -0.000000
      8.19241      9.78768     10.96112         0.001027     -0.000000     -0.000000
     11.38294      9.78768      4.69762        -0.001027     -0.000000     -0.000000
      3.26256      1.66730      1.56587         0.000000      0.001027     -0.000000
      3.26256      4.85782      7.82937         0.000000     -0.001027     -0.000000
      4.85782      9.78768      4.69762        -0.001027     -0.000000     -0.000000
      1.66730      9.78768     10.96112         0.001027     -0.000000     -0.000000
      9.78768      4.85782      1.56587         0.000000     -0.001027     -0.000000
      9.78768      1.66730      7.82937         0.000000      0.001027     -0.000000
      0.00000      0.00000      3.13175         0.000000     -0.000000     -0.000000
      6.52512      6.52512      9.39524         0.000000     -0.000000     -0.000000
      0.00000      6.52512      6.26350         0.000000     -0.000000     -0.000000
      6.52512      0.00000      0.00000         0.000000     -0.000000     -0.000000
      0.00000      6.52512      0.00000         0.000000     -0.000000     -0.000000
      6.52512      0.00000      6.26350         0.000000     -0.000000     -0.000000
      0.00000      0.00000      9.39524         0.000000     -0.000000     -0.000000
      6.52512      6.52512      3.13175         0.000000     -0.000000     -0.000000
      0.00000      3.26256      1.56587         0.000000     -0.000000     -0.000000
      6.52512      3.26256      7.82937         0.000000     -0.000000     -0.000000
      9.78768      6.52512      4.69762         0.000000     -0.000000     -0.000000
      9.78768      0.00000     10.96112         0.000000     -0.000000     -0.000000
      6.52512      3.26256      1.56587         0.000000     -0.000000     -0.000000
      0.00000      3.26256      7.82937         0.000000     -0.000000     -0.000000
      9.78768      6.52512     10.96112         0.000000     -0.000000     -0.000000
      9.78768      0.00000      4.69762         0.000000     -0.000000     -0.000000
      3.26256      0.00000     10.96112         0.000000     -0.000000     -0.000000
      3.26256      6.52512      4.69762         0.000000     -0.000000     -0.000000
      3.26256      0.00000      4.69762         0.000000     -0.000000     -0.000000
      3.26256      6.52512     10.96112         0.000000     -0.000000     -0.000000
      6.52512      9.78768      7.82937         0.000000     -0.000000     -0.000000
      0.00000      9.78768      1.56587         0.000000     -0.000000     -0.000000
      0.00000      9.78768      7.82937         0.000000     -0.000000     -0.000000
      6.52512      9.78768      1.56587         0.000000     -0.000000     -0.000000
      0.45704      2.53435      9.75849        -0.001044     -0.001455     -0.002039
      6.06808      3.99077      3.49499         0.001044      0.001455     -0.002039
     10.51588      6.98215      0.36324         0.001455     -0.001044     -0.002039
      9.05947     12.59320      6.62674        -0.001455      0.001044     -0.002039
      6.06808      2.53435      5.90025         0.001044     -0.001455      0.002039
      0.45704      3.99077     12.16375        -0.001044      0.001455      0.002039
      9.05947      6.98215      2.76851        -0.001455     -0.001044      0.002039
     10.51588     12.59320      9.03200         0.001455      0.001044      0.002039
     12.59320      3.99077      5.90025         0.001044      0.001455      0.002039
      6.98215      2.53435     12.16375        -0.001044     -0.001455      0.002039
      2.53435     12.59320      2.76851        -0.001455      0.001044      0.002039
      3.99077      6.98215      9.03200         0.001455     -0.001044      0.002039
      6.98215      3.99077      9.75849        -0.001044      0.001455     -0.002039
     12.59320      2.53435      3.49499         0.001044     -0.001455     -0.002039
      3.99077     12.59320      0.36324         0.001455      0.001044     -0.002039
      2.53435      6.98215      6.62674        -0.001455     -0.001044     -0.002039
      6.98215      9.05947      3.49499        -0.001044     -0.001455     -0.002039
     12.59320     10.51588      9.75849         0.001044      0.001455     -0.002039
      3.99077      0.45704      6.62674         0.001455     -0.001044     -0.002039
      2.53435      6.06808      0.36324        -0.001455      0.001044     -0.002039
     12.59320      9.05947     12.16375         0.001044     -0.001455      0.002039
      6.98215     10.51588      5.90025        -0.001044      0.001455      0.002039
      2.53435      0.45704      9.03200        -0.001455     -0.001044      0.002039
      3.99077      6.06808      2.76851         0.001455      0.001044      0.002039
      6.06808     10.51588     12.16375         0.001044      0.001455      0.002039
      0.45704      9.05947      5.90025        -0.001044     -0.001455      0.002039
      9.05947      6.06808      9.03200        -0.001455      0.001044      0.002039
     10.51588      0.45704      2.76851         0.001455     -0.001044      0.002039
      0.45704     10.51588      3.49499        -0.001044      0.001455     -0.002039
      6.06808      9.05947      9.75849         0.001044     -0.001455     -0.002039
     10.51588      6.06808      6.62674         0.001455      0.001044     -0.002039
      9.05947      0.45704      0.36324        -0.001455     -0.001044     -0.002039
      0.72011      1.33749      1.12284         0.003141      0.000248      0.000254
      5.80501      5.18763      7.38634        -0.003141     -0.000248      0.000254
     11.71275      7.24523      4.25459        -0.000248      0.003141      0.000254
      7.86261     12.33013     10.51809         0.000248     -0.003141      0.000254
      5.80501      1.33749      2.00890        -0.003141      0.000248     -0.000254
      0.72011      5.18763      8.27240         0.003141     -0.000248     -0.000254
      7.86261      7.24523     11.40415         0.000248      0.003141     -0.000254
     11.71275     12.33013      5.14065        -0.000248     -0.003141     -0.000254
     12.33013      5.18763      2.00890        -0.003141     -0.000248     -0.000254
      7.24523      1.33749      8.27240         0.003141      0.000248     -0.000254
      1.33749     12.33013     11.40415         0.000248     -0.003141     -0.000254
      5.18763      7.24523      5.14065        -0.000248      0.003141     -0.000254
      7.24523      5.18763      1.12284         0.003141     -0.000248      0.000254
     12.33013      1.33749      7.38634        -0.003141      0.000248      0.000254
      5.18763     12.33013      4.25459        -0.000248     -0.003141      0.000254
      1.33749      7.24523     10.51809         0.000248      0.003141      0.000254
      7.24523      7.86261      7.38634         0.003141      0.000248      0.000254
     12.33013     11.71275      1.12284        -0.003141     -0.000248      0.000254
      5.18763      0.72011     10.51809        -0.000248      0.003141      0.000254
      1.33749      5.80501      4.25459         0.000248     -0.003141      0.000254
     12.33013      7.86261      8.27240        -0.003141      0.000248     -0.000254
      7.24523     11.71275      2.00890         0.003141     -0.000248     -0.000254
      1.33749      0.72011      5.14065         0.000248      0.003141     -0.000254
      5.18763      5.80501     11.40415        -0.000248     -0.003141     -0.000254
      5.80501     11.71275      8.27240        -0.003141     -0.000248     -0.000254
      0.72011      7.86261      2.00890         0.003141      0.000248     -0.000254
      7.86261      5.80501      5.14065         0.000248     -0.003141     -0.000254
     11.71275      0.72011     11.40415        -0.000248      0.003141     -0.000254
      0.72011     11.71275      7.38634         0.003141     -0.000248      0.000254
      5.80501      7.86261      1.12284        -0.003141      0.000248      0.000254
     11.71275      5.80501     10.51809        -0.000248     -0.003141      0.000254
      7.86261      0.72011      4.25459         0.000248      0.003141      0.000254
      1.96899      2.89517      7.16050        -0.002411     -0.003262      0.003468
      4.55613      3.62995      0.89700         0.002411      0.003262      0.003468
     10.15507      8.49410     10.29224         0.003262     -0.002411      0.003468
      9.42029     11.08125      4.02875        -0.003262      0.002411      0.003468
      4.55613      2.89517      8.49824         0.002411     -0.003262     -0.003468
      1.96899      3.62995      2.23475        -0.002411      0.003262     -0.003468
      9.42029      8.49410      5.36650        -0.003262     -0.002411     -0.003468
     10.15507     11.08125     11.62999         0.003262      0.002411     -0.003468
     11.08125      3.62995      8.49824         0.002411      0.003262     -0.003468
      8.49410      2.89517      2.23475        -0.002411     -0.003262     -0.003468
      2.89517     11.08125      5.36650        -0.003262      0.002411     -0.003468
      3.62995      8.49410     11.62999         0.003262     -0.002411     -0.003468
      8.49410      3.62995      7.16050        -0.002411      0.003262      0.003468
     11.08125      2.89517      0.89700         0.002411     -0.003262      0.003468
      3.62995     11.08125     10.29224         0.003262      0.002411      0.003468
      2.89517      8.49410      4.02875        -0.003262     -0.002411      0.003468
      8.49410      9.42029      0.89700        -0.002411     -0.003262      0.003468
     11.08125     10.15507      7.16050         0.002411      0.003262      0.003468
      3.62995      1.96899      4.02875         0.003262     -0.002411      0.003468
      2.89517      4.55613     10.29224        -0.003262      0.002411      0.003468
     11.08125      9.42029      2.23475         0.002411     -0.003262     -0.003468
      8.49410     10.15507      8.49824        -0.002411      0.003262     -0.003468
      2.89517      1.96899     11.62999        -0.003262     -0.002411     -0.003468
      3.62995      4.55613      5.36650         0.003262      0.002411     -0.003468
      4.55613     10.15507      2.23475         0.002411      0.003262     -0.003468
      1.96899      9.42029      8.49824        -0.002411     -0.003262     -0.003468
      9.42029      4.55613     11.62999        -0.003262      0.002411     -0.003468
     10.15507      1.96899      5.36650         0.003262     -0.002411     -0.003468
      1.96899     10.15507      0.89700        -0.002411      0.003262      0.003468
      4.55613      9.42029      7.16050         0.002411     -0.003262      0.003468
     10.15507      4.55613      4.02875         0.003262      0.002411      0.003468
      9.42029      1.96899     10.29224        -0.003262     -0.002411      0.003468
 -----------------------------------------------------------------------------------
    total drift:                                0.000886      0.000886      0.000434


--------------------------------------------------------------------------------------------------------



  FREE ENERGIE OF THE ION-ELECTRON SYSTEM (eV)
  ---------------------------------------------------
  free  energy   TOTEN  =     -1426.92110824 eV

  energy  without entropy=    -1426.92110824  energy(sigma->0) =    -1426.92110824



--------------------------------------------------------------------------------------------------------


    POTLOK:  cpu time      0.0468: real time      0.0471


--------------------------------------------------------------------------------------------------------




--------------------------------------------------------------------------------------------------------



 reached required accuracy - stopping structural energy minimisation
     LOOP+:  cpu time    185.3955: real time    186.9011
    4ORBIT:  cpu time      0.0000: real time      0.0000

 total amount of memory used by VASP MPI-rank0    49181. kBytes
=======================================================================

   base      :      30000. kBytes
   nonlr-proj:       4371. kBytes
   fftplans  :       2943. kBytes
   grid      :       6227. kBytes
   one-center:        589. kBytes
   wavefun   :       5051. kBytes



 General timing and accounting informations for this job:
 ========================================================

                  Total CPU time used (sec):      193.071
                            User time (sec):      187.767
                          System time (sec):        5.304
                         Elapsed time (sec):      196.700

                   Maximum memory used (kb):      584612.
                   Average memory used (kb):          N/A

                          Minor page faults:       104911
                          Major page faults:           24
                 Voluntary context switches:         6462
