<?xml version="1.0" encoding="ISO-8859-1"?>
<modeling>
 <generator>
  <i name="program" type="string">vasp </i>
  <i name="version" type="string">6.3.0  </i>
  <i name="subversion" type="string">20Jan22 (build Feb 19 2024 21:15:32) complex                          parallel </i>
  <i name="platform" type="string">LinuxGNU </i>
  <i name="date" type="string">2024 08 04 </i>
  <i name="time" type="string">23:28:33 </i>
 </generator>
 <incar>
  <i type="string" name="PREC">Normal</i>
  <i type="int" name="ISPIN">     1</i>
  <i type="int" name="ICHARG">     2</i>
  <i type="int" name="NELM">    80</i>
  <i type="int" name="NELMIN">     4</i>
  <i name="EDIFF">      0.00001000</i>
  <i type="int" name="NSW">     0</i>
  <i type="int" name="ISYM">     0</i>
  <i name="ENCUT">    400.00000000</i>
  <i type="string" name="LREAL">Auto</i>
  <i type="int" name="ISMEAR">     0</i>
  <i name="SIGMA">      0.10000000</i>
  <i type="logical" name="LWAVE"> F  </i>
  <i type="logical" name="LCHARG"> F  </i>
  <i type="logical" name="LVTOT"> F  </i>
  <i type="logical" name="LEPSILON"> T  </i>
  <i type="logical" name="LPEAD"> T  </i>
 </incar>
 <primitive_cell>
  <structure name="primitive_cell" >
   <crystal>
    <varray name="basis" >
     <v>      11.37684345       0.00000000       0.00000000 </v>
     <v>       0.00000000      11.37684345       0.00000000 </v>
     <v>       0.00000000       0.00000000       9.60457420 </v>
    </varray>
    <i name="volume">   1243.14469355 </i>
    <varray name="rec_basis" >
     <v>       0.08789784       0.00000000       0.00000000 </v>
     <v>       0.00000000       0.08789784       0.00000000 </v>
     <v>       0.00000000       0.00000000       0.10411706 </v>
    </varray>
   </crystal>
   <varray name="positions" >
    <v>       0.16666667       0.16666667       0.50000000 </v>
    <v>       0.16666667       0.50000000       0.50000000 </v>
    <v>       0.16666667       0.83333331       0.50000000 </v>
    <v>       0.50000000       0.16666667       0.50000000 </v>
    <v>       0.50000000       0.50000000       0.50000000 </v>
    <v>       0.50000000       0.83333331       0.50000000 </v>
    <v>       0.83333331       0.16666667       0.50000000 </v>
    <v>       0.83333331       0.50000000       0.50000000 </v>
    <v>       0.83333331       0.83333331       0.50000000 </v>
    <v>       0.16666667       0.00000000       0.75000000 </v>
    <v>       0.16666667       0.33333334       0.75000000 </v>
    <v>       0.16666667       0.66666669       0.75000000 </v>
    <v>       0.50000000       0.00000000       0.75000000 </v>
    <v>       0.50000000       0.33333334       0.75000000 </v>
    <v>       0.50000000       0.66666669       0.75000000 </v>
    <v>       0.83333331       0.00000000       0.75000000 </v>
    <v>       0.83333331       0.33333334       0.75000000 </v>
    <v>       0.83333331       0.66666669       0.75000000 </v>
    <v>       0.00000000       0.00000000       0.00000000 </v>
    <v>       0.00000000       0.33333334       0.00000000 </v>
    <v>       0.00000000       0.66666669       0.00000000 </v>
    <v>       0.33333334       0.00000000       0.00000000 </v>
    <v>       0.33333334       0.33333334       0.00000000 </v>
    <v>       0.33333334       0.66666669       0.00000000 </v>
    <v>       0.66666669       0.00000000       0.00000000 </v>
    <v>       0.66666669       0.33333334       0.00000000 </v>
    <v>       0.66666669       0.66666669       0.00000000 </v>
    <v>       0.00000000       0.16666667       0.25000000 </v>
    <v>       0.00000000       0.50000000       0.25000000 </v>
    <v>       0.00000000       0.83333331       0.25000000 </v>
    <v>       0.33333334       0.16666667       0.25000000 </v>
    <v>       0.33333334       0.50000000       0.25000000 </v>
    <v>       0.33333334       0.83333331       0.25000000 </v>
    <v>       0.66666669       0.16666667       0.25000000 </v>
    <v>       0.66666669       0.50000000       0.25000000 </v>
    <v>       0.66666669       0.83333331       0.25000000 </v>
    <v>       0.00000000       0.16666667       0.45789859 </v>
    <v>       0.00000000       0.50000000       0.45789859 </v>
    <v>       0.00000000       0.83333331       0.45789859 </v>
    <v>       0.33333334       0.16666667       0.45789859 </v>
    <v>       0.33333334       0.50000000       0.45789859 </v>
    <v>       0.33333334       0.83333331       0.45789859 </v>
    <v>       0.66666669       0.16666667       0.45789859 </v>
    <v>       0.66666669       0.50000000       0.45789859 </v>
    <v>       0.66666669       0.83333331       0.45789859 </v>
    <v>       0.16666667       0.16666667       0.70789862 </v>
    <v>       0.16666667       0.50000000       0.70789862 </v>
    <v>       0.16666667       0.83333331       0.70789862 </v>
    <v>       0.50000000       0.16666667       0.70789862 </v>
    <v>       0.50000000       0.50000000       0.70789862 </v>
    <v>       0.50000000       0.83333331       0.70789862 </v>
    <v>       0.83333331       0.16666667       0.70789862 </v>
    <v>       0.83333331       0.50000000       0.70789862 </v>
    <v>       0.83333331       0.83333331       0.70789862 </v>
    <v>       0.16666667       0.00000000       0.54210138 </v>
    <v>       0.16666667       0.33333334       0.54210138 </v>
    <v>       0.16666667       0.66666669       0.54210138 </v>
    <v>       0.50000000       0.00000000       0.54210138 </v>
    <v>       0.50000000       0.33333334       0.54210138 </v>
    <v>       0.50000000       0.66666669       0.54210138 </v>
    <v>       0.83333331       0.00000000       0.54210138 </v>
    <v>       0.83333331       0.33333334       0.54210138 </v>
    <v>       0.83333331       0.66666669       0.54210138 </v>
    <v>       0.00000000       0.00000000       0.79210138 </v>
    <v>       0.00000000       0.33333334       0.79210138 </v>
    <v>       0.00000000       0.66666669       0.79210138 </v>
    <v>       0.33333334       0.00000000       0.79210138 </v>
    <v>       0.33333334       0.33333334       0.79210138 </v>
    <v>       0.33333334       0.66666669       0.79210138 </v>
    <v>       0.66666669       0.00000000       0.79210138 </v>
    <v>       0.66666669       0.33333334       0.79210138 </v>
    <v>       0.66666669       0.66666669       0.79210138 </v>
    <v>       0.16666667       0.00000000       0.95789862 </v>
    <v>       0.16666667       0.33333334       0.95789862 </v>
    <v>       0.16666667       0.66666669       0.95789862 </v>
    <v>       0.50000000       0.00000000       0.95789862 </v>
    <v>       0.50000000       0.33333334       0.95789862 </v>
    <v>       0.50000000       0.66666669       0.95789862 </v>
    <v>       0.83333331       0.00000000       0.95789862 </v>
    <v>       0.83333331       0.33333334       0.95789862 </v>
    <v>       0.83333331       0.66666669       0.95789862 </v>
    <v>       0.00000000       0.00000000       0.20789860 </v>
    <v>       0.00000000       0.33333334       0.20789860 </v>
    <v>       0.00000000       0.66666669       0.20789860 </v>
    <v>       0.33333334       0.00000000       0.20789860 </v>
    <v>       0.33333334       0.33333334       0.20789860 </v>
    <v>       0.33333334       0.66666669       0.20789860 </v>
    <v>       0.66666669       0.00000000       0.20789860 </v>
    <v>       0.66666669       0.33333334       0.20789860 </v>
    <v>       0.66666669       0.66666669       0.20789860 </v>
    <v>       0.00000000       0.16666667       0.04210141 </v>
    <v>       0.00000000       0.50000000       0.04210141 </v>
    <v>       0.00000000       0.83333331       0.04210141 </v>
    <v>       0.33333334       0.16666667       0.04210141 </v>
    <v>       0.33333334       0.50000000       0.04210141 </v>
    <v>       0.33333334       0.83333331       0.04210141 </v>
    <v>       0.66666669       0.16666667       0.04210141 </v>
    <v>       0.66666669       0.50000000       0.04210141 </v>
    <v>       0.66666669       0.83333331       0.04210141 </v>
    <v>       0.16666667       0.16666667       0.29210141 </v>
    <v>       0.16666667       0.50000000       0.29210141 </v>
    <v>       0.16666667       0.83333331       0.29210141 </v>
    <v>       0.50000000       0.16666667       0.29210141 </v>
    <v>       0.50000000       0.50000000       0.29210141 </v>
    <v>       0.50000000       0.83333331       0.29210141 </v>
    <v>       0.83333331       0.16666667       0.29210141 </v>
    <v>       0.83333331       0.50000000       0.29210141 </v>
    <v>       0.83333331       0.83333331       0.29210141 </v>
   </varray>
  </structure>
  <varray name="primitive_index" >
   <v type="int" >        1 </v>
   <v type="int" >        2 </v>
   <v type="int" >        3 </v>
   <v type="int" >        4 </v>
   <v type="int" >        5 </v>
   <v type="int" >        6 </v>
   <v type="int" >        7 </v>
   <v type="int" >        8 </v>
   <v type="int" >        9 </v>
   <v type="int" >       10 </v>
   <v type="int" >       11 </v>
   <v type="int" >       12 </v>
   <v type="int" >       13 </v>
   <v type="int" >       14 </v>
   <v type="int" >       15 </v>
   <v type="int" >       16 </v>
   <v type="int" >       17 </v>
   <v type="int" >       18 </v>
   <v type="int" >       19 </v>
   <v type="int" >       20 </v>
   <v type="int" >       21 </v>
   <v type="int" >       22 </v>
   <v type="int" >       23 </v>
   <v type="int" >       24 </v>
   <v type="int" >       25 </v>
   <v type="int" >       26 </v>
   <v type="int" >       27 </v>
   <v type="int" >       28 </v>
   <v type="int" >       29 </v>
   <v type="int" >       30 </v>
   <v type="int" >       31 </v>
   <v type="int" >       32 </v>
   <v type="int" >       33 </v>
   <v type="int" >       34 </v>
   <v type="int" >       35 </v>
   <v type="int" >       36 </v>
   <v type="int" >       37 </v>
   <v type="int" >       38 </v>
   <v type="int" >       39 </v>
   <v type="int" >       40 </v>
   <v type="int" >       41 </v>
   <v type="int" >       42 </v>
   <v type="int" >       43 </v>
   <v type="int" >       44 </v>
   <v type="int" >       45 </v>
   <v type="int" >       46 </v>
   <v type="int" >       47 </v>
   <v type="int" >       48 </v>
   <v type="int" >       49 </v>
   <v type="int" >       50 </v>
   <v type="int" >       51 </v>
   <v type="int" >       52 </v>
   <v type="int" >       53 </v>
   <v type="int" >       54 </v>
   <v type="int" >       55 </v>
   <v type="int" >       56 </v>
   <v type="int" >       57 </v>
   <v type="int" >       58 </v>
   <v type="int" >       59 </v>
   <v type="int" >       60 </v>
   <v type="int" >       61 </v>
   <v type="int" >       62 </v>
   <v type="int" >       63 </v>
   <v type="int" >       64 </v>
   <v type="int" >       65 </v>
   <v type="int" >       66 </v>
   <v type="int" >       67 </v>
   <v type="int" >       68 </v>
   <v type="int" >       69 </v>
   <v type="int" >       70 </v>
   <v type="int" >       71 </v>
   <v type="int" >       72 </v>
   <v type="int" >       73 </v>
   <v type="int" >       74 </v>
   <v type="int" >       75 </v>
   <v type="int" >       76 </v>
   <v type="int" >       77 </v>
   <v type="int" >       78 </v>
   <v type="int" >       79 </v>
   <v type="int" >       80 </v>
   <v type="int" >       81 </v>
   <v type="int" >       82 </v>
   <v type="int" >       83 </v>
   <v type="int" >       84 </v>
   <v type="int" >       85 </v>
   <v type="int" >       86 </v>
   <v type="int" >       87 </v>
   <v type="int" >       88 </v>
   <v type="int" >       89 </v>
   <v type="int" >       90 </v>
   <v type="int" >       91 </v>
   <v type="int" >       92 </v>
   <v type="int" >       93 </v>
   <v type="int" >       94 </v>
   <v type="int" >       95 </v>
   <v type="int" >       96 </v>
   <v type="int" >       97 </v>
   <v type="int" >       98 </v>
   <v type="int" >       99 </v>
   <v type="int" >      100 </v>
   <v type="int" >      101 </v>
   <v type="int" >      102 </v>
   <v type="int" >      103 </v>
   <v type="int" >      104 </v>
   <v type="int" >      105 </v>
   <v type="int" >      106 </v>
   <v type="int" >      107 </v>
   <v type="int" >      108 </v>
  </varray>
 </primitive_cell>
 <kpoints>
  <generation param="Monkhorst-Pack">
   <v type="int" name="divisions">       2        2        2 </v>
   <v name="usershift">      0.00000000       0.00000000       0.00000000 </v>
   <v name="genvec1">      0.50000000       0.00000000       0.00000000 </v>
   <v name="genvec2">      0.00000000       0.50000000       0.00000000 </v>
   <v name="genvec3">      0.00000000       0.00000000       0.50000000 </v>
   <v name="shift">      0.50000000       0.50000000       0.50000000 </v>
  </generation>
  <varray name="kpointlist" >
   <v>       0.25000000       0.25000000       0.25000000 </v>
   <v>      -0.25000000       0.25000000       0.25000000 </v>
   <v>      -0.25000000      -0.25000000       0.25000000 </v>
   <v>       0.25000000      -0.25000000       0.25000000 </v>
  </varray>
  <varray name="weights" >
   <v>       0.25000000 </v>
   <v>       0.25000000 </v>
   <v>       0.25000000 </v>
   <v>       0.25000000 </v>
  </varray>
 </kpoints>
 <parameters>
  <separator name="general" >
   <i type="string" name="SYSTEM">unknown system</i>
   <i type="logical" name="LCOMPAT"> F  </i>
  </separator>
  <separator name="electronic" >
   <i type="string" name="PREC">normal</i>
   <i name="ENMAX">    400.00000000</i>
   <i name="ENAUG">    605.39200000</i>
   <i name="EDIFF">      0.00001000</i>
   <i type="int" name="IALGO">    38</i>
   <i type="int" name="IWAVPR">    10</i>
   <i type="int" name="NBANDS">   476</i>
   <i type="int" name="NBANDSLOW">    -1</i>
   <i type="int" name="NBANDSHIGH">    -1</i>
   <i name="NELECT">    792.00000000</i>
   <i type="int" name="TURBO">     0</i>
   <i type="int" name="IRESTART">     0</i>
   <i type="int" name="NREBOOT">     0</i>
   <i type="int" name="NMIN">     0</i>
   <i name="EREF">      0.00000000</i>
   <separator name="electronic smearing" >
    <i type="int" name="ISMEAR">     0</i>
    <i name="SIGMA">      0.10000000</i>
    <i name="KSPACING">      0.50000000</i>
    <i type="logical" name="KGAMMA"> T  </i>
    <i type="logical" name="KBLOWUP"> T  </i>
   </separator>
   <separator name="electronic projectors" >
    <i type="logical" name="LREAL"> T  </i>
    <v name="ROPT">     -0.00050000     -0.00050000</v>
    <i type="int" name="LMAXPAW">  -100</i>
    <i type="int" name="LMAXMIX">     2</i>
    <i type="logical" name="NLSPLINE"> F  </i>
   </separator>
   <separator name="electronic startup" >
    <i type="int" name="ISTART">     0</i>
    <i type="int" name="ICHARG">     2</i>
    <i type="int" name="INIWAV">     1</i>
   </separator>
   <separator name="electronic spin" >
    <i type="int" name="ISPIN">     1</i>
    <i type="logical" name="LNONCOLLINEAR"> F  </i>
    <v name="MAGMOM">      1.00000000      1.00000000      1.00000000      1.00000000      1.00000000      1.00000000      1.00000000      1.00000000      1.00000000      1.00000000      1.00000000      1.00000000      1.00000000      1.00000000      1.00000000      1.00000000      1.00000000      1.00000000      1.00000000      1.00000000
      1.00000000      1.00000000      1.00000000      1.00000000      1.00000000      1.00000000      1.00000000      1.00000000      1.00000000      1.00000000      1.00000000      1.00000000      1.00000000      1.00000000      1.00000000      1.00000000      1.00000000      1.00000000      1.00000000      1.00000000
      1.00000000      1.00000000      1.00000000      1.00000000      1.00000000      1.00000000      1.00000000      1.00000000      1.00000000      1.00000000      1.00000000      1.00000000      1.00000000      1.00000000      1.00000000      1.00000000      1.00000000      1.00000000      1.00000000      1.00000000
      1.00000000      1.00000000      1.00000000      1.00000000      1.00000000      1.00000000      1.00000000      1.00000000      1.00000000      1.00000000      1.00000000      1.00000000      1.00000000      1.00000000      1.00000000      1.00000000      1.00000000      1.00000000      1.00000000      1.00000000
      1.00000000      1.00000000      1.00000000      1.00000000      1.00000000      1.00000000      1.00000000      1.00000000      1.00000000      1.00000000      1.00000000      1.00000000      1.00000000      1.00000000      1.00000000      1.00000000      1.00000000      1.00000000      1.00000000      1.00000000
      1.00000000      1.00000000      1.00000000      1.00000000      1.00000000      1.00000000      1.00000000      1.00000000</v>
    <i name="NUPDOWN">     -1.00000000</i>
    <i type="logical" name="LSORBIT"> F  </i>
    <v name="SAXIS">      0.00000000      0.00000000      1.00000000</v>
    <i type="logical" name="LSPIRAL"> F  </i>
    <v name="QSPIRAL">      0.00000000      0.00000000      0.00000000</v>
    <i type="logical" name="LZEROZ"> F  </i>
   </separator>
   <separator name="electronic exchange-correlation" >
    <i type="logical" name="LASPH"> F  </i>
    <i type="logical" name="LMETAGGA"> F  </i>
   </separator>
   <separator name="electronic convergence" >
    <i type="int" name="NELM">    80</i>
    <i type="int" name="NELMDL">    -5</i>
    <i type="int" name="NELMIN">     4</i>
    <i name="ENINI">    400.00000000</i>
    <separator name="electronic convergence detail" >
     <i type="logical" name="LDIAG"> T  </i>
     <i type="logical" name="LSUBROT"> F  </i>
     <i name="WEIMIN">      0.00000000</i>
     <i name="EBREAK">      0.00000001</i>
     <i name="DEPER">      0.30000000</i>
     <i type="int" name="NRMM">     4</i>
     <i name="TIME">      0.40000000</i>
    </separator>
   </separator>
   <separator name="electronic mixer" >
    <i name="AMIX">      0.40000000</i>
    <i name="BMIX">      1.00000000</i>
    <i name="AMIN">      0.10000000</i>
    <i name="AMIX_MAG">      1.60000000</i>
    <i name="BMIX_MAG">      1.00000000</i>
    <separator name="electronic mixer details" >
     <i type="int" name="IMIX">     4</i>
     <i type="logical" name="MIXFIRST"> F  </i>
     <i type="int" name="MAXMIX">   -45</i>
     <i name="WC">    100.00000000</i>
     <i type="int" name="INIMIX">     1</i>
     <i type="int" name="MIXPRE">     1</i>
     <i type="int" name="MREMOVE">     5</i>
    </separator>
   </separator>
   <separator name="electronic dipolcorrection" >
    <i type="logical" name="LDIPOL"> F  </i>
    <i type="logical" name="LMONO"> F  </i>
    <i type="int" name="IDIPOL">     0</i>
    <i name="EPSILON">      1.00000000</i>
    <v name="DIPOL">   -100.00000000   -100.00000000   -100.00000000</v>
    <i name="EFIELD">      0.00000000</i>
   </separator>
  </separator>
  <separator name="grids" >
   <i type="int" name="NGX">    56</i>
   <i type="int" name="NGY">    56</i>
   <i type="int" name="NGZ">    48</i>
   <i type="int" name="NGXF">   112</i>
   <i type="int" name="NGYF">   112</i>
   <i type="int" name="NGZF">    96</i>
   <i type="logical" name="ADDGRID"> F  </i>
  </separator>
  <separator name="ionic" >
   <i type="int" name="NSW">     0</i>
   <i type="int" name="IBRION">    -1</i>
   <i type="int" name="MDALGO">     0</i>
   <i type="int" name="ISIF">     2</i>
   <i name="PSTRESS">      0.00000000</i>
   <i name="EDIFFG">      0.00010000</i>
   <i type="int" name="NFREE">     0</i>
   <i name="POTIM">      0.50000000</i>
   <i name="SMASS">     -3.00000000</i>
   <i name="SCALEE">      1.00000000</i>
  </separator>
  <separator name="ionic md" >
   <i name="TEBEG">      0.00010000</i>
   <i name="TEEND">      0.00010000</i>
   <i type="int" name="NBLOCK">     1</i>
   <i type="int" name="KBLOCK">     1</i>
   <i type="int" name="NPACO">   256</i>
   <i name="APACO">     10.00000000</i>
  </separator>
  <separator name="symmetry" >
   <i type="int" name="ISYM">     0</i>
   <i name="SYMPREC">      0.00001000</i>
  </separator>
  <separator name="dos" >
   <i type="int" name="LORBIT">     0</i>
   <v name="RWIGS">     -1.00000000     -1.00000000</v>
   <i type="int" name="NEDOS">   301</i>
   <i name="EMIN">     10.00000000</i>
   <i name="EMAX">    -10.00000000</i>
   <i name="EFERMI">      0.00000000</i>
  </separator>
  <separator name="writing" >
   <i type="int" name="NWRITE">     2</i>
   <i type="logical" name="LWAVE"> F  </i>
   <i type="logical" name="LDOWNSAMPLE"> F  </i>
   <i type="logical" name="LCHARG"> F  </i>
   <i type="logical" name="LPARD"> F  </i>
   <i type="logical" name="LVTOT"> F  </i>
   <i type="logical" name="LVHAR"> F  </i>
   <i type="logical" name="LELF"> F  </i>
   <i type="logical" name="LOPTICS"> F  </i>
   <v name="STM">      0.00000000      0.00000000      0.00000000      0.00000000      0.00000000      0.00000000      0.00000000</v>
  </separator>
  <separator name="performance" >
   <i type="int" name="NPAR">     4</i>
   <i type="int" name="NSIM">     4</i>
   <i type="int" name="NBLK">    -1</i>
   <i type="logical" name="LPLANE"> T  </i>
   <i type="logical" name="LSCALAPACK"> T  </i>
   <i type="logical" name="LSCAAWARE"> F  </i>
   <i type="logical" name="LSCALU"> F  </i>
   <i type="logical" name="LASYNC"> F  </i>
   <i type="logical" name="LORBITALREAL"> F  </i>
  </separator>
  <separator name="miscellaneous" >
   <i type="int" name="IDIOT">     3</i>
   <i type="int" name="PHON_NSTRUCT">    -1</i>
   <i type="logical" name="LMUSIC"> F  </i>
   <v name="POMASS">     47.88000000     16.00000000</v>
   <v name="DARWINR">      0.00000000      0.00000000</v>
   <v name="DARWINV">      1.00000000      1.00000000</v>
   <i type="logical" name="LCORR"> T  </i>
  </separator>
  <i type="logical" name="GGA_COMPAT"> T  </i>
  <i type="logical" name="LBERRY"> F  </i>
  <i type="int" name="ICORELEVEL">     0</i>
  <i type="logical" name="LDAU"> F  </i>
  <i type="int" name="I_CONSTRAINED_M">     0</i>
  <separator name="electronic exchange-correlation" >
   <i type="string" name="GGA">--</i>
   <i type="int" name="VOSKOWN">     0</i>
   <i type="logical" name="LHFCALC"> F  </i>
   <i type="string" name="PRECFOCK"></i>
   <i type="logical" name="LSYMGRAD"> F  </i>
   <i type="logical" name="LHFONE"> F  </i>
   <i type="logical" name="LRHFCALC"> F  </i>
   <i type="logical" name="LTHOMAS"> F  </i>
   <i type="logical" name="LMODELHF"> F  </i>
   <i type="logical" name="LFOCKACE"> F  </i>
   <i name="ENCUT4O">     -1.00000000</i>
   <i type="int" name="EXXOEP">     0</i>
   <i type="int" name="FOURORBIT">     0</i>
   <i name="AEXX">      0.00000000</i>
   <i name="HFALPHA">      0.00000000</i>
   <i name="MCALPHA">      0.00000000</i>
   <i name="ALDAX">      1.00000000</i>
   <i name="AGGAX">      1.00000000</i>
   <i name="ALDAC">      1.00000000</i>
   <i name="AGGAC">      1.00000000</i>
   <i type="int" name="NKREDX">     1</i>
   <i type="int" name="NKREDY">     1</i>
   <i type="int" name="NKREDZ">     1</i>
   <i type="logical" name="SHIFTRED"> F  </i>
   <i type="logical" name="ODDONLY"> F  </i>
   <i type="logical" name="EVENONLY"> F  </i>
   <i type="int" name="LMAXFOCK">     0</i>
   <i type="int" name="NMAXFOCKAE">     0</i>
   <i type="logical" name="LFOCKAEDFT"> F  </i>
   <i name="HFSCREEN">      0.00000000</i>
   <i name="HFSCREENC">      0.00000000</i>
   <i type="int" name="NBANDSGWLOW">     0</i>
  </separator>
  <separator name="vdW DFT" >
   <i type="logical" name="LUSE_VDW"> F  </i>
   <i name="Zab_VDW">     -0.84910000</i>
   <i name="PARAM1">      0.12340000</i>
   <i name="PARAM2">      1.00000000</i>
   <i name="PARAM3">      0.00000000</i>
  </separator>
  <separator name="model GW" >
   <i type="int" name="MODEL_GW">     0</i>
   <i name="MODEL_EPS0">      6.90635941</i>
   <i name="MODEL_ALPHA">      1.00000000</i>
  </separator>
  <separator name="linear response parameters" >
   <i type="logical" name="LEPSILON"> T  </i>
   <i type="logical" name="LRPA"> F  </i>
   <i type="logical" name="LNABLA"> F  </i>
   <i type="logical" name="LVEL"> F  </i>
   <i name="CSHIFT">      0.10000000</i>
   <i name="OMEGAMAX">     -1.00000000</i>
   <i name="DEG_THRESHOLD">      0.00200000</i>
   <i name="RTIME">     -0.10000000</i>
   <i name="WPLASMAI">      0.00000000</i>
   <v name="DFIELD">      0.00000000      0.00000000      0.00000000</v>
   <v name="WPLASMA">      0.00000000      0.00000000      0.00000000      0.00000000      0.00000000      0.00000000      0.00000000      0.00000000      0.00000000</v>
  </separator>
  <separator name="orbital magnetization" >
   <i type="logical" name="NUCIND"> F  </i>
   <v name="MAGPOS">      0.00000000      0.00000000      0.00000000</v>
   <i type="logical" name="LNICSALL"> T  </i>
   <i type="logical" name="ORBITALMAG"> F  </i>
   <i type="logical" name="LMAGBLOCH"> F  </i>
   <i type="logical" name="LCHIMAG"> F  </i>
   <i type="logical" name="LGAUGE"> T  </i>
   <i type="int" name="MAGATOM">     0</i>
   <v name="MAGDIPOL">      0.00000000      0.00000000      0.00000000</v>
   <v name="AVECCONST">      0.00000000      0.00000000      0.00000000</v>
  </separator>
  <separator name="response functions" >
   <i type="logical" name="LFINITE_TEMPERATURE"> F  </i>
   <i type="logical" name="LADDER"> F  </i>
   <i type="logical" name="LRPAFORCE"> F  </i>
   <i type="logical" name="LFXC"> F  </i>
   <i type="logical" name="LHARTREE"> T  </i>
   <i type="int" name="IBSE">     0</i>
   <v type="int" name="KPOINT">    -1     0     0     0</v>
   <i type="logical" name="LTCTC"> F  </i>
   <i type="logical" name="LTCTE"> F  </i>
   <i type="logical" name="LTETE"> F  </i>
   <i type="logical" name="LTRIPLET"> F  </i>
   <i type="logical" name="LFXCEPS"> F  </i>
   <i type="logical" name="LFXHEG"> F  </i>
   <i type="int" name="NATURALO">     2</i>
   <i type="logical" name="LHOLEGF"> F  </i>
   <i type="logical" name="L2ORDER"> F  </i>
   <i type="logical" name="LDMP1"> F  </i>
   <i type="logical" name="LMP2LT"> F  </i>
   <i type="logical" name="LSMP2LT"> F  </i>
   <i type="logical" name="LGWLF"> F  </i>
   <i name="ENCUTGW">     -2.00000000</i>
   <i name="ENCUTGWSOFT">     -2.00000000</i>
   <i name="ENCUTLF">     -1.00000000</i>
   <i type="logical" name="LESF_SPLINES"> F  </i>
   <i type="int" name="LMAXMP2">    -1</i>
   <i name="SCISSOR">      0.00000000</i>
   <i type="int" name="NOMEGA">     0</i>
   <i type="int" name="NOMEGAR">     0</i>
   <i type="int" name="NBANDSGW">    -1</i>
   <i type="int" name="NBANDSO">    -1</i>
   <i type="int" name="NBANDSV">    -1</i>
   <i type="int" name="NELMGW">     1</i>
   <i type="int" name="NELMHF">     1</i>
   <i type="int" name="DIM">     3</i>
   <i type="int" name="IESPILON">     4</i>
   <i type="int" name="ANTIRES">     0</i>
   <i name="OMEGAMAX">    -30.00000000</i>
   <i name="OMEGAMIN">    -30.00000000</i>
   <i name="OMEGATL">   -200.00000000</i>
   <i type="int" name="OMEGAGRID">     0</i>
   <i name="CSHIFT">     -0.10000000</i>
   <i type="logical" name="LSELFENERGY"> F  </i>
   <i type="logical" name="LSPECTRAL"> F  </i>
   <i type="logical" name="LSPECTRALGW"> F  </i>
   <i type="logical" name="LSINGLES"> F  </i>
   <i type="logical" name="LFERMIGW"> F  </i>
   <i type="logical" name="ODDONLYGW"> F  </i>
   <i type="logical" name="EVENONLYGW"> F  </i>
   <i type="int" name="NKREDLFX">     1</i>
   <i type="int" name="NKREDLFY">     1</i>
   <i type="int" name="NKREDLFZ">     1</i>
   <i type="int" name="MAXMEM">  2800</i>
   <i type="int" name="TELESCOPE">     0</i>
   <i type="int" name="NTAUPAR">    -1</i>
   <i type="int" name="NOMEGAPAR">    -1</i>
   <i name="DAMP_NEWTON">      0.80000001</i>
   <i name="LAMBDA">      1.00000000</i>
  </separator>
  <separator name="External order field" >
   <i name="OFIELD_KAPPA">      0.00000000</i>
   <v name="OFIELD_K">      0.00000000      0.00000000      0.00000000</v>
   <i name="OFIELD_Q6_NEAR">      0.00000000</i>
   <i name="OFIELD_Q6_FAR">      0.00000000</i>
   <i name="OFIELD_A">      0.00000000</i>
  </separator>
  <separator name="optional k-points parameters" >
   <i type="int" name="KPOINTS_OPT_MODE">     1</i>
   <i type="logical" name="LKPOINTS_OPT"> F  </i>
  </separator>
 </parameters>
 <atominfo>
  <atoms>     108 </atoms>
  <types>       2 </types>
  <array name="atoms" >
   <dimension dim="1">ion</dimension>
   <field type="string">element</field>
   <field type="int">atomtype</field>
   <set>
    <rc><c>Ti</c><c>   1</c></rc>
    <rc><c>Ti</c><c>   1</c></rc>
    <rc><c>Ti</c><c>   1</c></rc>
    <rc><c>Ti</c><c>   1</c></rc>
    <rc><c>Ti</c><c>   1</c></rc>
    <rc><c>Ti</c><c>   1</c></rc>
    <rc><c>Ti</c><c>   1</c></rc>
    <rc><c>Ti</c><c>   1</c></rc>
    <rc><c>Ti</c><c>   1</c></rc>
    <rc><c>Ti</c><c>   1</c></rc>
    <rc><c>Ti</c><c>   1</c></rc>
    <rc><c>Ti</c><c>   1</c></rc>
    <rc><c>Ti</c><c>   1</c></rc>
    <rc><c>Ti</c><c>   1</c></rc>
    <rc><c>Ti</c><c>   1</c></rc>
    <rc><c>Ti</c><c>   1</c></rc>
    <rc><c>Ti</c><c>   1</c></rc>
    <rc><c>Ti</c><c>   1</c></rc>
    <rc><c>Ti</c><c>   1</c></rc>
    <rc><c>Ti</c><c>   1</c></rc>
    <rc><c>Ti</c><c>   1</c></rc>
    <rc><c>Ti</c><c>   1</c></rc>
    <rc><c>Ti</c><c>   1</c></rc>
    <rc><c>Ti</c><c>   1</c></rc>
    <rc><c>Ti</c><c>   1</c></rc>
    <rc><c>Ti</c><c>   1</c></rc>
    <rc><c>Ti</c><c>   1</c></rc>
    <rc><c>Ti</c><c>   1</c></rc>
    <rc><c>Ti</c><c>   1</c></rc>
    <rc><c>Ti</c><c>   1</c></rc>
    <rc><c>Ti</c><c>   1</c></rc>
    <rc><c>Ti</c><c>   1</c></rc>
    <rc><c>Ti</c><c>   1</c></rc>
    <rc><c>Ti</c><c>   1</c></rc>
    <rc><c>Ti</c><c>   1</c></rc>
    <rc><c>Ti</c><c>   1</c></rc>
    <rc><c>O </c><c>   2</c></rc>
    <rc><c>O </c><c>   2</c></rc>
    <rc><c>O </c><c>   2</c></rc>
    <rc><c>O </c><c>   2</c></rc>
    <rc><c>O </c><c>   2</c></rc>
    <rc><c>O </c><c>   2</c></rc>
    <rc><c>O </c><c>   2</c></rc>
    <rc><c>O </c><c>   2</c></rc>
    <rc><c>O </c><c>   2</c></rc>
    <rc><c>O </c><c>   2</c></rc>
    <rc><c>O </c><c>   2</c></rc>
    <rc><c>O </c><c>   2</c></rc>
    <rc><c>O </c><c>   2</c></rc>
    <rc><c>O </c><c>   2</c></rc>
    <rc><c>O </c><c>   2</c></rc>
    <rc><c>O </c><c>   2</c></rc>
    <rc><c>O </c><c>   2</c></rc>
    <rc><c>O </c><c>   2</c></rc>
    <rc><c>O </c><c>   2</c></rc>
    <rc><c>O </c><c>   2</c></rc>
    <rc><c>O </c><c>   2</c></rc>
    <rc><c>O </c><c>   2</c></rc>
    <rc><c>O </c><c>   2</c></rc>
    <rc><c>O </c><c>   2</c></rc>
    <rc><c>O </c><c>   2</c></rc>
    <rc><c>O </c><c>   2</c></rc>
    <rc><c>O </c><c>   2</c></rc>
    <rc><c>O </c><c>   2</c></rc>
    <rc><c>O </c><c>   2</c></rc>
    <rc><c>O </c><c>   2</c></rc>
    <rc><c>O </c><c>   2</c></rc>
    <rc><c>O </c><c>   2</c></rc>
    <rc><c>O </c><c>   2</c></rc>
    <rc><c>O </c><c>   2</c></rc>
    <rc><c>O </c><c>   2</c></rc>
    <rc><c>O </c><c>   2</c></rc>
    <rc><c>O </c><c>   2</c></rc>
    <rc><c>O </c><c>   2</c></rc>
    <rc><c>O </c><c>   2</c></rc>
    <rc><c>O </c><c>   2</c></rc>
    <rc><c>O </c><c>   2</c></rc>
    <rc><c>O </c><c>   2</c></rc>
    <rc><c>O </c><c>   2</c></rc>
    <rc><c>O </c><c>   2</c></rc>
    <rc><c>O </c><c>   2</c></rc>
    <rc><c>O </c><c>   2</c></rc>
    <rc><c>O </c><c>   2</c></rc>
    <rc><c>O </c><c>   2</c></rc>
    <rc><c>O </c><c>   2</c></rc>
    <rc><c>O </c><c>   2</c></rc>
    <rc><c>O </c><c>   2</c></rc>
    <rc><c>O </c><c>   2</c></rc>
    <rc><c>O </c><c>   2</c></rc>
    <rc><c>O </c><c>   2</c></rc>
    <rc><c>O </c><c>   2</c></rc>
    <rc><c>O </c><c>   2</c></rc>
    <rc><c>O </c><c>   2</c></rc>
    <rc><c>O </c><c>   2</c></rc>
    <rc><c>O </c><c>   2</c></rc>
    <rc><c>O </c><c>   2</c></rc>
    <rc><c>O </c><c>   2</c></rc>
    <rc><c>O </c><c>   2</c></rc>
    <rc><c>O </c><c>   2</c></rc>
    <rc><c>O </c><c>   2</c></rc>
    <rc><c>O </c><c>   2</c></rc>
    <rc><c>O </c><c>   2</c></rc>
    <rc><c>O </c><c>   2</c></rc>
    <rc><c>O </c><c>   2</c></rc>
    <rc><c>O </c><c>   2</c></rc>
    <rc><c>O </c><c>   2</c></rc>
    <rc><c>O </c><c>   2</c></rc>
    <rc><c>O </c><c>   2</c></rc>
   </set>
  </array>
  <array name="atomtypes" >
   <dimension dim="1">type</dimension>
   <field type="int">atomspertype</field>
   <field type="string">element</field>
   <field>mass</field>
   <field>valence</field>
   <field type="string">pseudopotential</field>
   <set>
    <rc><c>  36</c><c>Ti</c><c>     47.88000000</c><c>     10.00000000</c><c>  PAW_PBE Ti_pv 07Sep2000               </c></rc>
    <rc><c>  72</c><c>O </c><c>     16.00000000</c><c>      6.00000000</c><c>  PAW_PBE O 08Apr2002                   </c></rc>
   </set>
  </array>
 </atominfo>
 <structure name="initialpos" >
  <crystal>
   <varray name="basis" >
    <v>      11.37684345       0.00000000       0.00000000 </v>
    <v>       0.00000000      11.37684345       0.00000000 </v>
    <v>       0.00000000       0.00000000       9.60457420 </v>
   </varray>
   <i name="volume">   1243.14469355 </i>
   <varray name="rec_basis" >
    <v>       0.08789784       0.00000000       0.00000000 </v>
    <v>       0.00000000       0.08789784       0.00000000 </v>
    <v>       0.00000000       0.00000000       0.10411706 </v>
   </varray>
  </crystal>
  <varray name="positions" >
   <v>       0.16666667       0.16666667       0.50000000 </v>
   <v>       0.16666667       0.50000000       0.50000000 </v>
   <v>       0.16666667       0.83333331       0.50000000 </v>
   <v>       0.50000000       0.16666667       0.50000000 </v>
   <v>       0.50000000       0.50000000       0.50000000 </v>
   <v>       0.50000000       0.83333331       0.50000000 </v>
   <v>       0.83333331       0.16666667       0.50000000 </v>
   <v>       0.83333331       0.50000000       0.50000000 </v>
   <v>       0.83333331       0.83333331       0.50000000 </v>
   <v>       0.16666667       0.00000000       0.75000000 </v>
   <v>       0.16666667       0.33333334       0.75000000 </v>
   <v>       0.16666667       0.66666669       0.75000000 </v>
   <v>       0.50000000       0.00000000       0.75000000 </v>
   <v>       0.50000000       0.33333334       0.75000000 </v>
   <v>       0.50000000       0.66666669       0.75000000 </v>
   <v>       0.83333331       0.00000000       0.75000000 </v>
   <v>       0.83333331       0.33333334       0.75000000 </v>
   <v>       0.83333331       0.66666669       0.75000000 </v>
   <v>       0.00000000       0.00000000       0.00000000 </v>
   <v>       0.00000000       0.33333334       0.00000000 </v>
   <v>       0.00000000       0.66666669       0.00000000 </v>
   <v>       0.33333334       0.00000000       0.00000000 </v>
   <v>       0.33333334       0.33333334       0.00000000 </v>
   <v>       0.33333334       0.66666669       0.00000000 </v>
   <v>       0.66666669       0.00000000       0.00000000 </v>
   <v>       0.66666669       0.33333334       0.00000000 </v>
   <v>       0.66666669       0.66666669       0.00000000 </v>
   <v>       0.00000000       0.16666667       0.25000000 </v>
   <v>       0.00000000       0.50000000       0.25000000 </v>
   <v>       0.00000000       0.83333331       0.25000000 </v>
   <v>       0.33333334       0.16666667       0.25000000 </v>
   <v>       0.33333334       0.50000000       0.25000000 </v>
   <v>       0.33333334       0.83333331       0.25000000 </v>
   <v>       0.66666669       0.16666667       0.25000000 </v>
   <v>       0.66666669       0.50000000       0.25000000 </v>
   <v>       0.66666669       0.83333331       0.25000000 </v>
   <v>       0.00000000       0.16666667       0.45789859 </v>
   <v>       0.00000000       0.50000000       0.45789859 </v>
   <v>       0.00000000       0.83333331       0.45789859 </v>
   <v>       0.33333334       0.16666667       0.45789859 </v>
   <v>       0.33333334       0.50000000       0.45789859 </v>
   <v>       0.33333334       0.83333331       0.45789859 </v>
   <v>       0.66666669       0.16666667       0.45789859 </v>
   <v>       0.66666669       0.50000000       0.45789859 </v>
   <v>       0.66666669       0.83333331       0.45789859 </v>
   <v>       0.16666667       0.16666667       0.70789862 </v>
   <v>       0.16666667       0.50000000       0.70789862 </v>
   <v>       0.16666667       0.83333331       0.70789862 </v>
   <v>       0.50000000       0.16666667       0.70789862 </v>
   <v>       0.50000000       0.50000000       0.70789862 </v>
   <v>       0.50000000       0.83333331       0.70789862 </v>
   <v>       0.83333331       0.16666667       0.70789862 </v>
   <v>       0.83333331       0.50000000       0.70789862 </v>
   <v>       0.83333331       0.83333331       0.70789862 </v>
   <v>       0.16666667       0.00000000       0.54210138 </v>
   <v>       0.16666667       0.33333334       0.54210138 </v>
   <v>       0.16666667       0.66666669       0.54210138 </v>
   <v>       0.50000000       0.00000000       0.54210138 </v>
   <v>       0.50000000       0.33333334       0.54210138 </v>
   <v>       0.50000000       0.66666669       0.54210138 </v>
   <v>       0.83333331       0.00000000       0.54210138 </v>
   <v>       0.83333331       0.33333334       0.54210138 </v>
   <v>       0.83333331       0.66666669       0.54210138 </v>
   <v>       0.00000000       0.00000000       0.79210138 </v>
   <v>       0.00000000       0.33333334       0.79210138 </v>
   <v>       0.00000000       0.66666669       0.79210138 </v>
   <v>       0.33333334       0.00000000       0.79210138 </v>
   <v>       0.33333334       0.33333334       0.79210138 </v>
   <v>       0.33333334       0.66666669       0.79210138 </v>
   <v>       0.66666669       0.00000000       0.79210138 </v>
   <v>       0.66666669       0.33333334       0.79210138 </v>
   <v>       0.66666669       0.66666669       0.79210138 </v>
   <v>       0.16666667       0.00000000       0.95789862 </v>
   <v>       0.16666667       0.33333334       0.95789862 </v>
   <v>       0.16666667       0.66666669       0.95789862 </v>
   <v>       0.50000000       0.00000000       0.95789862 </v>
   <v>       0.50000000       0.33333334       0.95789862 </v>
   <v>       0.50000000       0.66666669       0.95789862 </v>
   <v>       0.83333331       0.00000000       0.95789862 </v>
   <v>       0.83333331       0.33333334       0.95789862 </v>
   <v>       0.83333331       0.66666669       0.95789862 </v>
   <v>       0.00000000       0.00000000       0.20789860 </v>
   <v>       0.00000000       0.33333334       0.20789860 </v>
   <v>       0.00000000       0.66666669       0.20789860 </v>
   <v>       0.33333334       0.00000000       0.20789860 </v>
   <v>       0.33333334       0.33333334       0.20789860 </v>
   <v>       0.33333334       0.66666669       0.20789860 </v>
   <v>       0.66666669       0.00000000       0.20789860 </v>
   <v>       0.66666669       0.33333334       0.20789860 </v>
   <v>       0.66666669       0.66666669       0.20789860 </v>
   <v>       0.00000000       0.16666667       0.04210141 </v>
   <v>       0.00000000       0.50000000       0.04210141 </v>
   <v>       0.00000000       0.83333331       0.04210141 </v>
   <v>       0.33333334       0.16666667       0.04210141 </v>
   <v>       0.33333334       0.50000000       0.04210141 </v>
   <v>       0.33333334       0.83333331       0.04210141 </v>
   <v>       0.66666669       0.16666667       0.04210141 </v>
   <v>       0.66666669       0.50000000       0.04210141 </v>
   <v>       0.66666669       0.83333331       0.04210141 </v>
   <v>       0.16666667       0.16666667       0.29210141 </v>
   <v>       0.16666667       0.50000000       0.29210141 </v>
   <v>       0.16666667       0.83333331       0.29210141 </v>
   <v>       0.50000000       0.16666667       0.29210141 </v>
   <v>       0.50000000       0.50000000       0.29210141 </v>
   <v>       0.50000000       0.83333331       0.29210141 </v>
   <v>       0.83333331       0.16666667       0.29210141 </v>
   <v>       0.83333331       0.50000000       0.29210141 </v>
   <v>       0.83333331       0.83333331       0.29210141 </v>
  </varray>
 </structure>
 <calculation>
  <scstep>
   <time name="dav">   13.46   13.63</time>
   <time name="total">   13.70   13.88</time>
   <energy>
    <i name="alphaZ">   3563.47650690 </i>
    <i name="ewald"> -48589.53846469 </i>
    <i name="hartreedc"> -18840.34673848 </i>
    <i name="XCdc">   3286.84851174 </i>
    <i name="pawpsdc">  54431.09303398 </i>
    <i name="pawaedc"> -54537.79254336 </i>
    <i name="eentropy">     -0.14347895 </i>
    <i name="bandstr">   3589.75382806 </i>
    <i name="atom">  68656.39924158 </i>
    <i name="e_fr_energy">  11559.74989678 </i>
    <i name="e_wo_entrp">  11559.89337573 </i>
    <i name="e_0_energy">  11559.82163626 </i>
   </energy>
  </scstep>
  <scstep>
   <time name="dav">   13.19   13.36</time>
   <time name="total">   13.20   13.37</time>
   <energy>
    <i name="e_fr_energy">   1572.82662538 </i>
    <i name="e_wo_entrp">   1573.11324905 </i>
    <i name="e_0_energy">   1572.96993722 </i>
   </energy>
  </scstep>
  <scstep>
   <time name="dav">   14.64   14.75</time>
   <time name="total">   14.65   14.76</time>
   <energy>
    <i name="e_fr_energy">  -1068.55016696 </i>
    <i name="e_wo_entrp">  -1068.55016696 </i>
    <i name="e_0_energy">  -1068.55016696 </i>
   </energy>
  </scstep>
  <scstep>
   <time name="dav">   16.54   16.63</time>
   <time name="total">   16.54   16.63</time>
   <energy>
    <i name="e_fr_energy">  -1273.14961532 </i>
    <i name="e_wo_entrp">  -1273.14961532 </i>
    <i name="e_0_energy">  -1273.14961532 </i>
   </energy>
  </scstep>
  <scstep>
   <time name="dav">   16.46   16.54</time>
   <time name="total">   16.67   16.76</time>
   <energy>
    <i name="e_fr_energy">  -1278.73981914 </i>
    <i name="e_wo_entrp">  -1278.73981914 </i>
    <i name="e_0_energy">  -1278.73981914 </i>
   </energy>
  </scstep>
  <scstep>
   <time name="dav">   16.49   16.58</time>
   <time name="total">   16.94   17.03</time>
   <energy>
    <i name="e_fr_energy">   -976.54353186 </i>
    <i name="e_wo_entrp">   -976.54353186 </i>
    <i name="e_0_energy">   -976.54353186 </i>
   </energy>
  </scstep>
  <scstep>
   <time name="dav">   17.84   17.93</time>
   <time name="total">   18.29   18.38</time>
   <energy>
    <i name="e_fr_energy">   -972.07988147 </i>
    <i name="e_wo_entrp">   -972.07988147 </i>
    <i name="e_0_energy">   -972.07988147 </i>
   </energy>
  </scstep>
  <scstep>
   <time name="dav">   16.24   16.33</time>
   <time name="total">   16.72   16.81</time>
   <energy>
    <i name="e_fr_energy">   -972.34929060 </i>
    <i name="e_wo_entrp">   -972.34929060 </i>
    <i name="e_0_energy">   -972.34929060 </i>
   </energy>
  </scstep>
  <scstep>
   <time name="dav">   15.83   15.92</time>
   <time name="total">   16.32   16.41</time>
   <energy>
    <i name="e_fr_energy">   -966.64250924 </i>
    <i name="e_wo_entrp">   -966.64250924 </i>
    <i name="e_0_energy">   -966.64250924 </i>
   </energy>
  </scstep>
  <scstep>
   <time name="dav">   17.13   17.27</time>
   <time name="total">   17.61   17.75</time>
   <energy>
    <i name="e_fr_energy">   -966.75425442 </i>
    <i name="e_wo_entrp">   -966.75425442 </i>
    <i name="e_0_energy">   -966.75425442 </i>
   </energy>
  </scstep>
  <scstep>
   <time name="dav">   17.71   17.85</time>
   <time name="total">   18.19   18.33</time>
   <energy>
    <i name="e_fr_energy">   -966.68578104 </i>
    <i name="e_wo_entrp">   -966.68578104 </i>
    <i name="e_0_energy">   -966.68578104 </i>
   </energy>
  </scstep>
  <scstep>
   <time name="dav">   17.27   17.40</time>
   <time name="total">   17.76   17.88</time>
   <energy>
    <i name="e_fr_energy">   -966.68837144 </i>
    <i name="e_wo_entrp">   -966.68837144 </i>
    <i name="e_0_energy">   -966.68837144 </i>
   </energy>
  </scstep>
  <scstep>
   <time name="dav">   16.99   17.09</time>
   <time name="total">   17.48   17.59</time>
   <energy>
    <i name="e_fr_energy">   -966.68704046 </i>
    <i name="e_wo_entrp">   -966.68704046 </i>
    <i name="e_0_energy">   -966.68704046 </i>
   </energy>
  </scstep>
  <scstep>
   <time name="dav">   16.97   17.06</time>
   <time name="total">   17.46   17.56</time>
   <energy>
    <i name="e_fr_energy">   -966.68726452 </i>
    <i name="e_wo_entrp">   -966.68726452 </i>
    <i name="e_0_energy">   -966.68726452 </i>
   </energy>
  </scstep>
  <scstep>
   <time name="dav">   16.30   16.39</time>
   <time name="total">   16.77   16.87</time>
   <energy>
    <i name="e_fr_energy">   -966.68708277 </i>
    <i name="e_wo_entrp">   -966.68708277 </i>
    <i name="e_0_energy">   -966.68708277 </i>
   </energy>
  </scstep>
  <scstep>
   <time name="dav">   17.24   17.39</time>
   <time name="total">   17.74   17.89</time>
   <energy>
    <i name="e_fr_energy">   -966.68711581 </i>
    <i name="e_wo_entrp">   -966.68711581 </i>
    <i name="e_0_energy">   -966.68711581 </i>
   </energy>
  </scstep>
  <scstep>
   <time name="dav">   16.16   16.25</time>
   <time name="total">   16.65   16.74</time>
   <energy>
    <i name="e_fr_energy">   -966.68709108 </i>
    <i name="e_wo_entrp">   -966.68709108 </i>
    <i name="e_0_energy">   -966.68709108 </i>
   </energy>
  </scstep>
  <scstep>
   <time name="dav">    9.86    9.92</time>
   <time name="total">   10.12   10.17</time>
   <energy>
    <i name="alphaZ">   3563.47650690 </i>
    <i name="ewald"> -48589.53846469 </i>
    <i name="hartreedc"> -18739.28018543 </i>
    <i name="XCdc">   3312.81483310 </i>
    <i name="pawpsdc">  89196.77972806 </i>
    <i name="pawaedc"> -89498.31396971 </i>
    <i name="eentropy">     -0.00000000 </i>
    <i name="bandstr">  -8869.02478650 </i>
    <i name="atom">  68656.39924158 </i>
    <i name="e_fr_energy">   -966.68709671 </i>
    <i name="e_wo_entrp">   -966.68709671 </i>
    <i name="e_0_energy">   -966.68709671 </i>
   </energy>
  </scstep>
  <structure>
   <crystal>
    <varray name="basis" >
     <v>      11.37684345       0.00000000       0.00000000 </v>
     <v>       0.00000000      11.37684345       0.00000000 </v>
     <v>       0.00000000       0.00000000       9.60457420 </v>
    </varray>
    <i name="volume">   1243.14469355 </i>
    <varray name="rec_basis" >
     <v>       0.08789784       0.00000000       0.00000000 </v>
     <v>       0.00000000       0.08789784       0.00000000 </v>
     <v>       0.00000000       0.00000000       0.10411706 </v>
    </varray>
   </crystal>
   <varray name="positions" >
    <v>       0.16666667       0.16666667       0.50000000 </v>
    <v>       0.16666667       0.50000000       0.50000000 </v>
    <v>       0.16666667       0.83333331       0.50000000 </v>
    <v>       0.50000000       0.16666667       0.50000000 </v>
    <v>       0.50000000       0.50000000       0.50000000 </v>
    <v>       0.50000000       0.83333331       0.50000000 </v>
    <v>       0.83333331       0.16666667       0.50000000 </v>
    <v>       0.83333331       0.50000000       0.50000000 </v>
    <v>       0.83333331       0.83333331       0.50000000 </v>
    <v>       0.16666667       0.00000000       0.75000000 </v>
    <v>       0.16666667       0.33333334       0.75000000 </v>
    <v>       0.16666667       0.66666669       0.75000000 </v>
    <v>       0.50000000       0.00000000       0.75000000 </v>
    <v>       0.50000000       0.33333334       0.75000000 </v>
    <v>       0.50000000       0.66666669       0.75000000 </v>
    <v>       0.83333331       0.00000000       0.75000000 </v>
    <v>       0.83333331       0.33333334       0.75000000 </v>
    <v>       0.83333331       0.66666669       0.75000000 </v>
    <v>       0.00000000       0.00000000       0.00000000 </v>
    <v>       0.00000000       0.33333334       0.00000000 </v>
    <v>       0.00000000       0.66666669       0.00000000 </v>
    <v>       0.33333334       0.00000000       0.00000000 </v>
    <v>       0.33333334       0.33333334       0.00000000 </v>
    <v>       0.33333334       0.66666669       0.00000000 </v>
    <v>       0.66666669       0.00000000       0.00000000 </v>
    <v>       0.66666669       0.33333334       0.00000000 </v>
    <v>       0.66666669       0.66666669       0.00000000 </v>
    <v>       0.00000000       0.16666667       0.25000000 </v>
    <v>       0.00000000       0.50000000       0.25000000 </v>
    <v>       0.00000000       0.83333331       0.25000000 </v>
    <v>       0.33333334       0.16666667       0.25000000 </v>
    <v>       0.33333334       0.50000000       0.25000000 </v>
    <v>       0.33333334       0.83333331       0.25000000 </v>
    <v>       0.66666669       0.16666667       0.25000000 </v>
    <v>       0.66666669       0.50000000       0.25000000 </v>
    <v>       0.66666669       0.83333331       0.25000000 </v>
    <v>       0.00000000       0.16666667       0.45789859 </v>
    <v>       0.00000000       0.50000000       0.45789859 </v>
    <v>       0.00000000       0.83333331       0.45789859 </v>
    <v>       0.33333334       0.16666667       0.45789859 </v>
    <v>       0.33333334       0.50000000       0.45789859 </v>
    <v>       0.33333334       0.83333331       0.45789859 </v>
    <v>       0.66666669       0.16666667       0.45789859 </v>
    <v>       0.66666669       0.50000000       0.45789859 </v>
    <v>       0.66666669       0.83333331       0.45789859 </v>
    <v>       0.16666667       0.16666667       0.70789862 </v>
    <v>       0.16666667       0.50000000       0.70789862 </v>
    <v>       0.16666667       0.83333331       0.70789862 </v>
    <v>       0.50000000       0.16666667       0.70789862 </v>
    <v>       0.50000000       0.50000000       0.70789862 </v>
    <v>       0.50000000       0.83333331       0.70789862 </v>
    <v>       0.83333331       0.16666667       0.70789862 </v>
    <v>       0.83333331       0.50000000       0.70789862 </v>
    <v>       0.83333331       0.83333331       0.70789862 </v>
    <v>       0.16666667       0.00000000       0.54210138 </v>
    <v>       0.16666667       0.33333334       0.54210138 </v>
    <v>       0.16666667       0.66666669       0.54210138 </v>
    <v>       0.50000000       0.00000000       0.54210138 </v>
    <v>       0.50000000       0.33333334       0.54210138 </v>
    <v>       0.50000000       0.66666669       0.54210138 </v>
    <v>       0.83333331       0.00000000       0.54210138 </v>
    <v>       0.83333331       0.33333334       0.54210138 </v>
    <v>       0.83333331       0.66666669       0.54210138 </v>
    <v>       0.00000000       0.00000000       0.79210138 </v>
    <v>       0.00000000       0.33333334       0.79210138 </v>
    <v>       0.00000000       0.66666669       0.79210138 </v>
    <v>       0.33333334       0.00000000       0.79210138 </v>
    <v>       0.33333334       0.33333334       0.79210138 </v>
    <v>       0.33333334       0.66666669       0.79210138 </v>
    <v>       0.66666669       0.00000000       0.79210138 </v>
    <v>       0.66666669       0.33333334       0.79210138 </v>
    <v>       0.66666669       0.66666669       0.79210138 </v>
    <v>       0.16666667       0.00000000       0.95789862 </v>
    <v>       0.16666667       0.33333334       0.95789862 </v>
    <v>       0.16666667       0.66666669       0.95789862 </v>
    <v>       0.50000000       0.00000000       0.95789862 </v>
    <v>       0.50000000       0.33333334       0.95789862 </v>
    <v>       0.50000000       0.66666669       0.95789862 </v>
    <v>       0.83333331       0.00000000       0.95789862 </v>
    <v>       0.83333331       0.33333334       0.95789862 </v>
    <v>       0.83333331       0.66666669       0.95789862 </v>
    <v>       0.00000000       0.00000000       0.20789860 </v>
    <v>       0.00000000       0.33333334       0.20789860 </v>
    <v>       0.00000000       0.66666669       0.20789860 </v>
    <v>       0.33333334       0.00000000       0.20789860 </v>
    <v>       0.33333334       0.33333334       0.20789860 </v>
    <v>       0.33333334       0.66666669       0.20789860 </v>
    <v>       0.66666669       0.00000000       0.20789860 </v>
    <v>       0.66666669       0.33333334       0.20789860 </v>
    <v>       0.66666669       0.66666669       0.20789860 </v>
    <v>       0.00000000       0.16666667       0.04210141 </v>
    <v>       0.00000000       0.50000000       0.04210141 </v>
    <v>       0.00000000       0.83333331       0.04210141 </v>
    <v>       0.33333334       0.16666667       0.04210141 </v>
    <v>       0.33333334       0.50000000       0.04210141 </v>
    <v>       0.33333334       0.83333331       0.04210141 </v>
    <v>       0.66666669       0.16666667       0.04210141 </v>
    <v>       0.66666669       0.50000000       0.04210141 </v>
    <v>       0.66666669       0.83333331       0.04210141 </v>
    <v>       0.16666667       0.16666667       0.29210141 </v>
    <v>       0.16666667       0.50000000       0.29210141 </v>
    <v>       0.16666667       0.83333331       0.29210141 </v>
    <v>       0.50000000       0.16666667       0.29210141 </v>
    <v>       0.50000000       0.50000000       0.29210141 </v>
    <v>       0.50000000       0.83333331       0.29210141 </v>
    <v>       0.83333331       0.16666667       0.29210141 </v>
    <v>       0.83333331       0.50000000       0.29210141 </v>
    <v>       0.83333331       0.83333331       0.29210141 </v>
   </varray>
  </structure>
  <varray name="forces" >
   <v>       0.00247584       0.00250254      -0.00003445 </v>
   <v>       0.00331599      -0.00000447       0.00050772 </v>
   <v>       0.00246922      -0.00250106       0.00006306 </v>
   <v>       0.00001068       0.00343753      -0.00055738 </v>
   <v>       0.00002729      -0.00006723       0.00002502 </v>
   <v>       0.00005732      -0.00336762      -0.00054346 </v>
   <v>      -0.00248393       0.00252523      -0.00000023 </v>
   <v>      -0.00333060       0.00000020       0.00052878 </v>
   <v>      -0.00251662      -0.00251255      -0.00004381 </v>
   <v>       0.00335215      -0.00001878      -0.00056612 </v>
   <v>       0.00249810      -0.00250068       0.00002032 </v>
   <v>       0.00244350       0.00250229       0.00000051 </v>
   <v>      -0.00000201       0.00000332       0.00000149 </v>
   <v>      -0.00003542      -0.00334361       0.00050203 </v>
   <v>      -0.00002420       0.00334504       0.00055608 </v>
   <v>      -0.00334818       0.00004070      -0.00055190 </v>
   <v>      -0.00243459      -0.00250987      -0.00000879 </v>
   <v>      -0.00240017       0.00244490       0.00005496 </v>
   <v>       0.00002111       0.00004096       0.00002070 </v>
   <v>       0.00003619      -0.00340970      -0.00055375 </v>
   <v>      -0.00002913       0.00338635      -0.00066894 </v>
   <v>      -0.00338120      -0.00002421       0.00060078 </v>
   <v>      -0.00251642      -0.00245744      -0.00002280 </v>
   <v>      -0.00250565       0.00249449      -0.00000719 </v>
   <v>       0.00335925       0.00001426       0.00059967 </v>
   <v>       0.00248220      -0.00249078       0.00003821 </v>
   <v>       0.00253100       0.00247560      -0.00002700 </v>
   <v>       0.00004145       0.00339362       0.00056070 </v>
   <v>       0.00004500      -0.00006864       0.00007131 </v>
   <v>      -0.00005261      -0.00332560       0.00056444 </v>
   <v>      -0.00249783       0.00245084       0.00002713 </v>
   <v>      -0.00338960      -0.00001326      -0.00054599 </v>
   <v>      -0.00247416      -0.00242608      -0.00006506 </v>
   <v>       0.00245423       0.00250355       0.00000158 </v>
   <v>       0.00334736      -0.00003554      -0.00055762 </v>
   <v>       0.00252077      -0.00244900      -0.00000062 </v>
   <v>      -0.00002330       0.00935196      -0.00372562 </v>
   <v>       0.00001128      -0.00000001      -0.00267267 </v>
   <v>       0.00010929      -0.00936202      -0.00375202 </v>
   <v>      -0.01023826       0.00625296      -0.00429800 </v>
   <v>      -0.01367051      -0.00000933      -0.00303390 </v>
   <v>      -0.01039622      -0.00624030      -0.00424161 </v>
   <v>       0.01023301       0.00623652      -0.00424372 </v>
   <v>       0.01365234       0.00002425      -0.00303765 </v>
   <v>       0.01028203      -0.00624961      -0.00432149 </v>
   <v>       0.00624995       0.01020124      -0.00435967 </v>
   <v>       0.00931412       0.00001704      -0.00377583 </v>
   <v>       0.00621899      -0.01020561      -0.00448170 </v>
   <v>      -0.00003574       0.01353780      -0.00306402 </v>
   <v>      -0.00002556       0.00006472      -0.00262983 </v>
   <v>       0.00000332      -0.01360578      -0.00306479 </v>
   <v>      -0.00620344       0.01023962      -0.00431525 </v>
   <v>      -0.00929200      -0.00018142      -0.00380446 </v>
   <v>      -0.00622915      -0.01004394      -0.00434389 </v>
   <v>       0.00933335      -0.00016167       0.00366655 </v>
   <v>       0.00624517      -0.01024884       0.00427847 </v>
   <v>       0.00622095       0.01038577       0.00423028 </v>
   <v>       0.00001573      -0.00001851       0.00266830 </v>
   <v>      -0.00000583      -0.01368440       0.00296070 </v>
   <v>       0.00004578       0.01369381       0.00307918 </v>
   <v>      -0.00934864       0.00001434       0.00378234 </v>
   <v>      -0.00623558      -0.01027951       0.00433122 </v>
   <v>      -0.00625890       0.01023968       0.00415527 </v>
   <v>      -0.00007317      -0.00000626       0.00272403 </v>
   <v>      -0.00006506      -0.00933508       0.00385606 </v>
   <v>       0.00012110       0.00935131       0.00393998 </v>
   <v>      -0.01358292      -0.00001226       0.00304827 </v>
   <v>      -0.01025542      -0.00625694       0.00437130 </v>
   <v>      -0.01020732       0.00627516       0.00438487 </v>
   <v>       0.01365733      -0.00004614       0.00296637 </v>
   <v>       0.01030702      -0.00623975       0.00439664 </v>
   <v>       0.01008165       0.00627668       0.00434405 </v>
   <v>       0.01357396       0.00000872      -0.00297882 </v>
   <v>       0.01021959      -0.00627120      -0.00431918 </v>
   <v>       0.01025361       0.00625060      -0.00432278 </v>
   <v>      -0.00004247      -0.00001589      -0.00266709 </v>
   <v>       0.00003964      -0.00934283      -0.00366886 </v>
   <v>      -0.00006469       0.00935991      -0.00375580 </v>
   <v>      -0.01353953      -0.00001950      -0.00308905 </v>
   <v>      -0.01025344      -0.00625526      -0.00426494 </v>
   <v>      -0.01019541       0.00626241      -0.00417750 </v>
   <v>       0.00000270      -0.00011030      -0.00264426 </v>
   <v>       0.00002977      -0.01356526      -0.00308084 </v>
   <v>      -0.00003073       0.01366488      -0.00303284 </v>
   <v>      -0.00932939      -0.00009318      -0.00381026 </v>
   <v>      -0.00626412      -0.01018759      -0.00434525 </v>
   <v>      -0.00624537       0.01027270      -0.00432798 </v>
   <v>       0.00932397      -0.00004300      -0.00368785 </v>
   <v>       0.00622199      -0.01019755      -0.00448139 </v>
   <v>       0.00626929       0.01023502      -0.00432885 </v>
   <v>       0.00002856       0.01364005       0.00296114 </v>
   <v>       0.00002020      -0.00002572       0.00264027 </v>
   <v>      -0.00002614      -0.01362001       0.00305170 </v>
   <v>      -0.00627991       0.01022861       0.00424056 </v>
   <v>      -0.00938091       0.00000430       0.00372633 </v>
   <v>      -0.00626300      -0.01024009       0.00429310 </v>
   <v>       0.00624813       0.01039037       0.00425029 </v>
   <v>       0.00936152      -0.00008257       0.00374857 </v>
   <v>       0.00627585      -0.01028773       0.00430122 </v>
   <v>       0.01023551       0.00625823       0.00440878 </v>
   <v>       0.01359603      -0.00002709       0.00302287 </v>
   <v>       0.01017857      -0.00621947       0.00440899 </v>
   <v>      -0.00001036       0.00933368       0.00386665 </v>
   <v>      -0.00001164      -0.00000707       0.00263778 </v>
   <v>      -0.00000974      -0.00932222       0.00374581 </v>
   <v>      -0.01021566       0.00627056       0.00434382 </v>
   <v>      -0.01358164       0.00000121       0.00301232 </v>
   <v>      -0.01015650      -0.00625846       0.00431615 </v>
  </varray>
  <varray name="stress" >
   <v>     -20.78893884      -0.00007823       0.00009835 </v>
   <v>      -0.00007924     -20.79002933      -0.00007525 </v>
   <v>       0.00010212      -0.00007659     -23.14986904 </v>
  </varray>
  <energy>
   <i name="e_fr_energy">   -966.68709671 </i>
   <i name="e_wo_entrp">   -966.68709671 </i>
   <i name="e_0_energy">   -966.68709671 </i>
  </energy>
  <scstep>
   <time name="total">   11.32   12.31</time>
   <energy>
    <i name="e_fr_energy">    -16.77045241 </i>
    <i name="e_wo_entrp">    -16.77045241 </i>
    <i name="e_0_energy">    -16.77045241 </i>
   </energy>
  </scstep>
  <scstep>
   <time name="total">    8.93    8.98</time>
   <energy>
    <i name="e_fr_energy">    -20.47716873 </i>
    <i name="e_wo_entrp">    -20.47716873 </i>
    <i name="e_0_energy">    -20.47716873 </i>
   </energy>
  </scstep>
  <scstep>
   <time name="total">   10.46   10.53</time>
   <energy>
    <i name="e_fr_energy">    -20.96923274 </i>
    <i name="e_wo_entrp">    -20.96923274 </i>
    <i name="e_0_energy">    -20.96923274 </i>
   </energy>
  </scstep>
  <scstep>
   <time name="total">   11.24   11.32</time>
   <energy>
    <i name="e_fr_energy">    -20.99089982 </i>
    <i name="e_wo_entrp">    -20.99089982 </i>
    <i name="e_0_energy">    -20.99089982 </i>
   </energy>
  </scstep>
  <scstep>
   <time name="total">   10.87   10.93</time>
   <energy>
    <i name="e_fr_energy">    -20.99334027 </i>
    <i name="e_wo_entrp">    -20.99334027 </i>
    <i name="e_0_energy">    -20.99334027 </i>
   </energy>
  </scstep>
  <scstep>
   <time name="total">   10.96   11.03</time>
   <energy>
    <i name="e_fr_energy">    -20.99352787 </i>
    <i name="e_wo_entrp">    -20.99352787 </i>
    <i name="e_0_energy">    -20.99352787 </i>
   </energy>
  </scstep>
  <scstep>
   <time name="total">   11.03   11.10</time>
   <energy>
    <i name="e_fr_energy">    -20.99353743 </i>
    <i name="e_wo_entrp">    -20.99353743 </i>
    <i name="e_0_energy">    -20.99353743 </i>
   </energy>
  </scstep>
  <scstep>
   <time name="total">   10.44   11.45</time>
   <energy>
    <i name="e_fr_energy">    -16.77054752 </i>
    <i name="e_wo_entrp">    -16.77054752 </i>
    <i name="e_0_energy">    -16.77054752 </i>
   </energy>
  </scstep>
  <scstep>
   <time name="total">   10.25   10.32</time>
   <energy>
    <i name="e_fr_energy">    -20.47489404 </i>
    <i name="e_wo_entrp">    -20.47489404 </i>
    <i name="e_0_energy">    -20.47489404 </i>
   </energy>
  </scstep>
  <scstep>
   <time name="total">   10.09   10.15</time>
   <energy>
    <i name="e_fr_energy">    -20.96994034 </i>
    <i name="e_wo_entrp">    -20.96994034 </i>
    <i name="e_0_energy">    -20.96994034 </i>
   </energy>
  </scstep>
  <scstep>
   <time name="total">   10.15   10.21</time>
   <energy>
    <i name="e_fr_energy">    -20.99098070 </i>
    <i name="e_wo_entrp">    -20.99098070 </i>
    <i name="e_0_energy">    -20.99098070 </i>
   </energy>
  </scstep>
  <scstep>
   <time name="total">   11.02   11.09</time>
   <energy>
    <i name="e_fr_energy">    -20.99341044 </i>
    <i name="e_wo_entrp">    -20.99341044 </i>
    <i name="e_0_energy">    -20.99341044 </i>
   </energy>
  </scstep>
  <scstep>
   <time name="total">   10.72   10.78</time>
   <energy>
    <i name="e_fr_energy">    -20.99360252 </i>
    <i name="e_wo_entrp">    -20.99360252 </i>
    <i name="e_0_energy">    -20.99360252 </i>
   </energy>
  </scstep>
  <scstep>
   <time name="total">   10.35   10.41</time>
   <energy>
    <i name="e_fr_energy">    -20.99361317 </i>
    <i name="e_wo_entrp">    -20.99361317 </i>
    <i name="e_0_energy">    -20.99361317 </i>
   </energy>
  </scstep>
  <scstep>
   <time name="total">   10.78   10.85</time>
   <energy>
    <i name="e_fr_energy">    -20.99361429 </i>
    <i name="e_wo_entrp">    -20.99361429 </i>
    <i name="e_0_energy">    -20.99361429 </i>
   </energy>
  </scstep>
  <scstep>
   <time name="total">   10.69   11.69</time>
   <energy>
    <i name="e_fr_energy">    -16.45359841 </i>
    <i name="e_wo_entrp">    -16.45359841 </i>
    <i name="e_0_energy">    -16.45359841 </i>
   </energy>
  </scstep>
  <scstep>
   <time name="total">    9.88    9.95</time>
   <energy>
    <i name="e_fr_energy">    -19.40478636 </i>
    <i name="e_wo_entrp">    -19.40478636 </i>
    <i name="e_0_energy">    -19.40478636 </i>
   </energy>
  </scstep>
  <scstep>
   <time name="total">    9.24    9.30</time>
   <energy>
    <i name="e_fr_energy">    -19.58544500 </i>
    <i name="e_wo_entrp">    -19.58544500 </i>
    <i name="e_0_energy">    -19.58544500 </i>
   </energy>
  </scstep>
  <scstep>
   <time name="total">   11.52   11.59</time>
   <energy>
    <i name="e_fr_energy">    -19.59538925 </i>
    <i name="e_wo_entrp">    -19.59538925 </i>
    <i name="e_0_energy">    -19.59538925 </i>
   </energy>
  </scstep>
  <scstep>
   <time name="total">   11.00   11.07</time>
   <energy>
    <i name="e_fr_energy">    -19.59640962 </i>
    <i name="e_wo_entrp">    -19.59640962 </i>
    <i name="e_0_energy">    -19.59640962 </i>
   </energy>
  </scstep>
  <scstep>
   <time name="total">   11.01   11.08</time>
   <energy>
    <i name="e_fr_energy">    -19.59646955 </i>
    <i name="e_wo_entrp">    -19.59646955 </i>
    <i name="e_0_energy">    -19.59646955 </i>
   </energy>
  </scstep>
  <scstep>
   <time name="total">   10.74   10.80</time>
   <energy>
    <i name="e_fr_energy">    -19.59647289 </i>
    <i name="e_wo_entrp">    -19.59647289 </i>
    <i name="e_0_energy">    -19.59647289 </i>
   </energy>
  </scstep>
  <varray name="dielectric_ipa" >
   <v>       7.11162486      -0.00000543      -0.00001293 </v>
   <v>      -0.00000216       7.11169071      -0.00000825 </v>
   <v>       0.00000184      -0.00000083       6.70494045 </v>
  </varray>
  <scstep>
   <time name="total">   10.91   11.92</time>
   <energy>
    <i name="e_fr_energy">    -16.77045241 </i>
    <i name="e_wo_entrp">    -16.77045241 </i>
    <i name="e_0_energy">    -16.77045241 </i>
   </energy>
  </scstep>
  <scstep>
   <time name="total">   10.51   10.57</time>
   <energy>
    <i name="e_fr_energy">    -20.47716873 </i>
    <i name="e_wo_entrp">    -20.47716873 </i>
    <i name="e_0_energy">    -20.47716873 </i>
   </energy>
  </scstep>
  <scstep>
   <time name="total">   10.60   10.67</time>
   <energy>
    <i name="e_fr_energy">    -20.35809239 </i>
    <i name="e_wo_entrp">    -20.35809239 </i>
    <i name="e_0_energy">    -20.35809239 </i>
   </energy>
  </scstep>
  <scstep>
   <time name="total">   11.55   11.62</time>
   <energy>
    <i name="e_fr_energy">    -19.62108174 </i>
    <i name="e_wo_entrp">    -19.62108174 </i>
    <i name="e_0_energy">    -19.62108174 </i>
   </energy>
  </scstep>
  <scstep>
   <time name="total">   12.62   12.70</time>
   <energy>
    <i name="e_fr_energy">    -19.50079383 </i>
    <i name="e_wo_entrp">    -19.50079383 </i>
    <i name="e_0_energy">    -19.50079383 </i>
   </energy>
  </scstep>
  <scstep>
   <time name="total">   12.61   12.69</time>
   <energy>
    <i name="e_fr_energy">    -19.44340671 </i>
    <i name="e_wo_entrp">    -19.44340671 </i>
    <i name="e_0_energy">    -19.44340671 </i>
   </energy>
  </scstep>
  <scstep>
   <time name="total">   11.92   11.99</time>
   <energy>
    <i name="e_fr_energy">    -19.44589971 </i>
    <i name="e_wo_entrp">    -19.44589971 </i>
    <i name="e_0_energy">    -19.44589971 </i>
   </energy>
  </scstep>
  <scstep>
   <time name="total">   13.69   13.77</time>
   <energy>
    <i name="e_fr_energy">    -19.44697075 </i>
    <i name="e_wo_entrp">    -19.44697075 </i>
    <i name="e_0_energy">    -19.44697075 </i>
   </energy>
  </scstep>
  <scstep>
   <time name="total">   12.83   12.90</time>
   <energy>
    <i name="e_fr_energy">    -19.44561359 </i>
    <i name="e_wo_entrp">    -19.44561359 </i>
    <i name="e_0_energy">    -19.44561359 </i>
   </energy>
  </scstep>
  <scstep>
   <time name="total">   14.51   14.60</time>
   <energy>
    <i name="e_fr_energy">    -19.44518126 </i>
    <i name="e_wo_entrp">    -19.44518126 </i>
    <i name="e_0_energy">    -19.44518126 </i>
   </energy>
  </scstep>
  <scstep>
   <time name="total">   14.58   14.67</time>
   <energy>
    <i name="e_fr_energy">    -19.44510942 </i>
    <i name="e_wo_entrp">    -19.44510942 </i>
    <i name="e_0_energy">    -19.44510942 </i>
   </energy>
  </scstep>
  <scstep>
   <time name="total">   13.80   13.88</time>
   <energy>
    <i name="e_fr_energy">    -19.44504774 </i>
    <i name="e_wo_entrp">    -19.44504774 </i>
    <i name="e_0_energy">    -19.44504774 </i>
   </energy>
  </scstep>
  <scstep>
   <time name="total">   14.24   14.33</time>
   <energy>
    <i name="e_fr_energy">    -19.44505375 </i>
    <i name="e_wo_entrp">    -19.44505375 </i>
    <i name="e_0_energy">    -19.44505375 </i>
   </energy>
  </scstep>
  <scstep>
   <time name="total">   14.62   14.71</time>
   <energy>
    <i name="e_fr_energy">    -19.44503261 </i>
    <i name="e_wo_entrp">    -19.44503261 </i>
    <i name="e_0_energy">    -19.44503261 </i>
   </energy>
  </scstep>
  <scstep>
   <time name="total">   14.26   14.35</time>
   <energy>
    <i name="e_fr_energy">    -19.44503014 </i>
    <i name="e_wo_entrp">    -19.44503014 </i>
    <i name="e_0_energy">    -19.44503014 </i>
   </energy>
  </scstep>
  <scstep>
   <time name="total">   14.12   14.21</time>
   <energy>
    <i name="e_fr_energy">    -19.44501782 </i>
    <i name="e_wo_entrp">    -19.44501782 </i>
    <i name="e_0_energy">    -19.44501782 </i>
   </energy>
  </scstep>
  <scstep>
   <time name="total">   13.59   13.67</time>
   <energy>
    <i name="e_fr_energy">    -19.44502207 </i>
    <i name="e_wo_entrp">    -19.44502207 </i>
    <i name="e_0_energy">    -19.44502207 </i>
   </energy>
  </scstep>
  <scstep>
   <time name="total">   14.43   14.53</time>
   <energy>
    <i name="e_fr_energy">    -19.44502199 </i>
    <i name="e_wo_entrp">    -19.44502199 </i>
    <i name="e_0_energy">    -19.44502199 </i>
   </energy>
  </scstep>
  <scstep>
   <time name="total">   14.37   14.46</time>
   <energy>
    <i name="e_fr_energy">    -19.44501818 </i>
    <i name="e_wo_entrp">    -19.44501818 </i>
    <i name="e_0_energy">    -19.44501818 </i>
   </energy>
  </scstep>
  <scstep>
   <time name="total">   14.88   14.97</time>
   <energy>
    <i name="e_fr_energy">    -19.44502346 </i>
    <i name="e_wo_entrp">    -19.44502346 </i>
    <i name="e_0_energy">    -19.44502346 </i>
   </energy>
  </scstep>
  <scstep>
   <time name="total">   14.98   15.07</time>
   <energy>
    <i name="e_fr_energy">    -19.44504479 </i>
    <i name="e_wo_entrp">    -19.44504479 </i>
    <i name="e_0_energy">    -19.44504479 </i>
   </energy>
  </scstep>
  <scstep>
   <time name="total">   13.54   13.75</time>
   <energy>
    <i name="e_fr_energy">    -19.44501810 </i>
    <i name="e_wo_entrp">    -19.44501810 </i>
    <i name="e_0_energy">    -19.44501810 </i>
   </energy>
  </scstep>
  <scstep>
   <time name="total">   14.89   14.97</time>
   <energy>
    <i name="e_fr_energy">    -19.44503627 </i>
    <i name="e_wo_entrp">    -19.44503627 </i>
    <i name="e_0_energy">    -19.44503627 </i>
   </energy>
  </scstep>
  <scstep>
   <time name="total">   14.54   14.64</time>
   <energy>
    <i name="e_fr_energy">    -19.44502895 </i>
    <i name="e_wo_entrp">    -19.44502895 </i>
    <i name="e_0_energy">    -19.44502895 </i>
   </energy>
  </scstep>
  <scstep>
   <time name="total">   15.00   15.08</time>
   <energy>
    <i name="e_fr_energy">    -19.44503266 </i>
    <i name="e_wo_entrp">    -19.44503266 </i>
    <i name="e_0_energy">    -19.44503266 </i>
   </energy>
  </scstep>
  <scstep>
   <time name="total">   14.37   14.46</time>
   <energy>
    <i name="e_fr_energy">    -19.44501558 </i>
    <i name="e_wo_entrp">    -19.44501558 </i>
    <i name="e_0_energy">    -19.44501558 </i>
   </energy>
  </scstep>
  <scstep>
   <time name="total">   13.83   13.91</time>
   <energy>
    <i name="e_fr_energy">    -19.44502608 </i>
    <i name="e_wo_entrp">    -19.44502608 </i>
    <i name="e_0_energy">    -19.44502608 </i>
   </energy>
  </scstep>
  <scstep>
   <time name="total">   15.07   15.15</time>
   <energy>
    <i name="e_fr_energy">    -19.44503718 </i>
    <i name="e_wo_entrp">    -19.44503718 </i>
    <i name="e_0_energy">    -19.44503718 </i>
   </energy>
  </scstep>
  <scstep>
   <time name="total">   15.38   15.47</time>
   <energy>
    <i name="e_fr_energy">    -19.44502832 </i>
    <i name="e_wo_entrp">    -19.44502832 </i>
    <i name="e_0_energy">    -19.44502832 </i>
   </energy>
  </scstep>
  <scstep>
   <time name="total">   10.40   11.38</time>
   <energy>
    <i name="e_fr_energy">    -16.77054752 </i>
    <i name="e_wo_entrp">    -16.77054752 </i>
    <i name="e_0_energy">    -16.77054752 </i>
   </energy>
  </scstep>
  <scstep>
   <time name="total">   10.95   11.02</time>
   <energy>
    <i name="e_fr_energy">    -20.47489404 </i>
    <i name="e_wo_entrp">    -20.47489404 </i>
    <i name="e_0_energy">    -20.47489404 </i>
   </energy>
  </scstep>
  <scstep>
   <time name="total">   10.15   10.21</time>
   <energy>
    <i name="e_fr_energy">    -20.35781270 </i>
    <i name="e_wo_entrp">    -20.35781270 </i>
    <i name="e_0_energy">    -20.35781270 </i>
   </energy>
  </scstep>
  <scstep>
   <time name="total">   12.20   12.27</time>
   <energy>
    <i name="e_fr_energy">    -19.62132558 </i>
    <i name="e_wo_entrp">    -19.62132558 </i>
    <i name="e_0_energy">    -19.62132558 </i>
   </energy>
  </scstep>
  <scstep>
   <time name="total">   12.70   12.78</time>
   <energy>
    <i name="e_fr_energy">    -19.50088059 </i>
    <i name="e_wo_entrp">    -19.50088059 </i>
    <i name="e_0_energy">    -19.50088059 </i>
   </energy>
  </scstep>
  <scstep>
   <time name="total">   12.23   12.31</time>
   <energy>
    <i name="e_fr_energy">    -19.44360527 </i>
    <i name="e_wo_entrp">    -19.44360527 </i>
    <i name="e_0_energy">    -19.44360527 </i>
   </energy>
  </scstep>
  <scstep>
   <time name="total">   12.55   12.63</time>
   <energy>
    <i name="e_fr_energy">    -19.44636832 </i>
    <i name="e_wo_entrp">    -19.44636832 </i>
    <i name="e_0_energy">    -19.44636832 </i>
   </energy>
  </scstep>
  <scstep>
   <time name="total">   12.32   12.39</time>
   <energy>
    <i name="e_fr_energy">    -19.44723484 </i>
    <i name="e_wo_entrp">    -19.44723484 </i>
    <i name="e_0_energy">    -19.44723484 </i>
   </energy>
  </scstep>
  <scstep>
   <time name="total">   12.97   13.05</time>
   <energy>
    <i name="e_fr_energy">    -19.44597822 </i>
    <i name="e_wo_entrp">    -19.44597822 </i>
    <i name="e_0_energy">    -19.44597822 </i>
   </energy>
  </scstep>
  <scstep>
   <time name="total">   13.60   13.68</time>
   <energy>
    <i name="e_fr_energy">    -19.44551293 </i>
    <i name="e_wo_entrp">    -19.44551293 </i>
    <i name="e_0_energy">    -19.44551293 </i>
   </energy>
  </scstep>
  <scstep>
   <time name="total">   14.26   14.35</time>
   <energy>
    <i name="e_fr_energy">    -19.44541690 </i>
    <i name="e_wo_entrp">    -19.44541690 </i>
    <i name="e_0_energy">    -19.44541690 </i>
   </energy>
  </scstep>
  <scstep>
   <time name="total">   14.13   14.22</time>
   <energy>
    <i name="e_fr_energy">    -19.44535424 </i>
    <i name="e_wo_entrp">    -19.44535424 </i>
    <i name="e_0_energy">    -19.44535424 </i>
   </energy>
  </scstep>
  <scstep>
   <time name="total">   14.15   14.23</time>
   <energy>
    <i name="e_fr_energy">    -19.44536122 </i>
    <i name="e_wo_entrp">    -19.44536122 </i>
    <i name="e_0_energy">    -19.44536122 </i>
   </energy>
  </scstep>
  <scstep>
   <time name="total">   14.03   14.12</time>
   <energy>
    <i name="e_fr_energy">    -19.44535775 </i>
    <i name="e_wo_entrp">    -19.44535775 </i>
    <i name="e_0_energy">    -19.44535775 </i>
   </energy>
  </scstep>
  <scstep>
   <time name="total">   13.90   13.99</time>
   <energy>
    <i name="e_fr_energy">    -19.44536941 </i>
    <i name="e_wo_entrp">    -19.44536941 </i>
    <i name="e_0_energy">    -19.44536941 </i>
   </energy>
  </scstep>
  <scstep>
   <time name="total">   12.82   12.89</time>
   <energy>
    <i name="e_fr_energy">    -19.44535224 </i>
    <i name="e_wo_entrp">    -19.44535224 </i>
    <i name="e_0_energy">    -19.44535224 </i>
   </energy>
  </scstep>
  <scstep>
   <time name="total">   13.48   13.56</time>
   <energy>
    <i name="e_fr_energy">    -19.44535022 </i>
    <i name="e_wo_entrp">    -19.44535022 </i>
    <i name="e_0_energy">    -19.44535022 </i>
   </energy>
  </scstep>
  <scstep>
   <time name="total">   13.65   13.73</time>
   <energy>
    <i name="e_fr_energy">    -19.44534627 </i>
    <i name="e_wo_entrp">    -19.44534627 </i>
    <i name="e_0_energy">    -19.44534627 </i>
   </energy>
  </scstep>
  <scstep>
   <time name="total">   14.17   14.26</time>
   <energy>
    <i name="e_fr_energy">    -19.44535902 </i>
    <i name="e_wo_entrp">    -19.44535902 </i>
    <i name="e_0_energy">    -19.44535902 </i>
   </energy>
  </scstep>
  <scstep>
   <time name="total">   14.07   14.16</time>
   <energy>
    <i name="e_fr_energy">    -19.44536649 </i>
    <i name="e_wo_entrp">    -19.44536649 </i>
    <i name="e_0_energy">    -19.44536649 </i>
   </energy>
  </scstep>
  <scstep>
   <time name="total">   14.00   14.08</time>
   <energy>
    <i name="e_fr_energy">    -19.44533648 </i>
    <i name="e_wo_entrp">    -19.44533648 </i>
    <i name="e_0_energy">    -19.44533648 </i>
   </energy>
  </scstep>
  <scstep>
   <time name="total">   14.69   14.78</time>
   <energy>
    <i name="e_fr_energy">    -19.44534250 </i>
    <i name="e_wo_entrp">    -19.44534250 </i>
    <i name="e_0_energy">    -19.44534250 </i>
   </energy>
  </scstep>
  <scstep>
   <time name="total">   10.32   11.32</time>
   <energy>
    <i name="e_fr_energy">    -16.45359841 </i>
    <i name="e_wo_entrp">    -16.45359841 </i>
    <i name="e_0_energy">    -16.45359841 </i>
   </energy>
  </scstep>
  <scstep>
   <time name="total">   10.23   10.30</time>
   <energy>
    <i name="e_fr_energy">    -19.40478636 </i>
    <i name="e_wo_entrp">    -19.40478636 </i>
    <i name="e_0_energy">    -19.40478636 </i>
   </energy>
  </scstep>
  <scstep>
   <time name="total">   13.03   13.13</time>
   <energy>
    <i name="e_fr_energy">    -18.43816214 </i>
    <i name="e_wo_entrp">    -18.43816214 </i>
    <i name="e_0_energy">    -18.43816214 </i>
   </energy>
  </scstep>
  <scstep>
   <time name="total">   12.37   12.45</time>
   <energy>
    <i name="e_fr_energy">    -18.10765351 </i>
    <i name="e_wo_entrp">    -18.10765351 </i>
    <i name="e_0_energy">    -18.10765351 </i>
   </energy>
  </scstep>
  <scstep>
   <time name="total">   12.21   12.30</time>
   <energy>
    <i name="e_fr_energy">    -17.60274135 </i>
    <i name="e_wo_entrp">    -17.60274135 </i>
    <i name="e_0_energy">    -17.60274135 </i>
   </energy>
  </scstep>
  <scstep>
   <time name="total">   13.17   13.26</time>
   <energy>
    <i name="e_fr_energy">    -17.46637045 </i>
    <i name="e_wo_entrp">    -17.46637045 </i>
    <i name="e_0_energy">    -17.46637045 </i>
   </energy>
  </scstep>
  <scstep>
   <time name="total">   11.26   11.35</time>
   <energy>
    <i name="e_fr_energy">    -17.45268180 </i>
    <i name="e_wo_entrp">    -17.45268180 </i>
    <i name="e_0_energy">    -17.45268180 </i>
   </energy>
  </scstep>
  <scstep>
   <time name="total">   12.31   12.41</time>
   <energy>
[...]
       <r>   -26.3711     0.0000   216.0000 </r>
       <r>   -26.2361     0.0000   216.0000 </r>
       <r>   -26.1010     0.0000   216.0000 </r>
       <r>   -25.9660     0.0000   216.0000 </r>
       <r>   -25.8309     0.0000   216.0000 </r>
       <r>   -25.6959     0.0000   216.0000 </r>
       <r>   -25.5608     0.0000   216.0000 </r>
       <r>   -25.4258     0.0000   216.0000 </r>
       <r>   -25.2907     0.0000   216.0000 </r>
       <r>   -25.1557     0.0000   216.0000 </r>
       <r>   -25.0206     0.0000   216.0000 </r>
       <r>   -24.8856     0.0000   216.0000 </r>
       <r>   -24.7505     0.0000   216.0000 </r>
       <r>   -24.6155     0.0000   216.0000 </r>
       <r>   -24.4804     0.0000   216.0000 </r>
       <r>   -24.3454     0.0000   216.0000 </r>
       <r>   -24.2103     0.0000   216.0000 </r>
       <r>   -24.0753     0.0000   216.0000 </r>
       <r>   -23.9402     0.0000   216.0000 </r>
       <r>   -23.8052     0.0000   216.0000 </r>
       <r>   -23.6701     0.0000   216.0000 </r>
       <r>   -23.5351     0.0000   216.0000 </r>
       <r>   -23.4000     0.0000   216.0000 </r>
       <r>   -23.2650     0.0000   216.0000 </r>
       <r>   -23.1299     0.0000   216.0000 </r>
       <r>   -22.9949     0.0000   216.0000 </r>
       <r>   -22.8598     0.0000   216.0000 </r>
       <r>   -22.7248     0.0000   216.0000 </r>
       <r>   -22.5897     0.0000   216.0000 </r>
       <r>   -22.4547     0.0000   216.0000 </r>
       <r>   -22.3197     0.0000   216.0000 </r>
       <r>   -22.1846     0.0000   216.0000 </r>
       <r>   -22.0496     0.0000   216.0000 </r>
       <r>   -21.9145     0.0000   216.0000 </r>
       <r>   -21.7795     0.0000   216.0000 </r>
       <r>   -21.6444     0.0000   216.0000 </r>
       <r>   -21.5094     0.0000   216.0000 </r>
       <r>   -21.3743     0.0000   216.0000 </r>
       <r>   -21.2393     0.0000   216.0000 </r>
       <r>   -21.1042     0.0000   216.0000 </r>
       <r>   -20.9692     0.0000   216.0000 </r>
       <r>   -20.8341     0.0000   216.0000 </r>
       <r>   -20.6991     0.0000   216.0000 </r>
       <r>   -20.5640     0.0000   216.0000 </r>
       <r>   -20.4290     0.0000   216.0000 </r>
       <r>   -20.2939     0.0000   216.0000 </r>
       <r>   -20.1589     0.0000   216.0000 </r>
       <r>   -20.0238     0.0000   216.0000 </r>
       <r>   -19.8888     0.0000   216.0000 </r>
       <r>   -19.7537     0.0000   216.0000 </r>
       <r>   -19.6187     0.0000   216.0000 </r>
       <r>   -19.4836     0.0000   216.0000 </r>
       <r>   -19.3486     0.0000   216.0000 </r>
       <r>   -19.2135     0.0000   216.0000 </r>
       <r>   -19.0785     0.0000   216.0000 </r>
       <r>   -18.9434     0.0000   216.0000 </r>
       <r>   -18.8084     0.0000   216.0000 </r>
       <r>   -18.6733     0.0000   216.0000 </r>
       <r>   -18.5383     0.0000   216.0000 </r>
       <r>   -18.4032     0.0000   216.0000 </r>
       <r>   -18.2682     0.0000   216.0000 </r>
       <r>   -18.1331     0.0000   216.0000 </r>
       <r>   -17.9981     0.0000   216.0000 </r>
       <r>   -17.8630     0.0000   216.0000 </r>
       <r>   -17.7280     0.0000   216.0000 </r>
       <r>   -17.5929     0.0000   216.0000 </r>
       <r>   -17.4579     0.0000   216.0000 </r>
       <r>   -17.3229     0.0000   216.0000 </r>
       <r>   -17.1878     0.0000   216.0000 </r>
       <r>   -17.0528     0.0000   216.0000 </r>
       <r>   -16.9177     0.0000   216.0000 </r>
       <r>   -16.7827     0.0000   216.0000 </r>
       <r>   -16.6476     0.0000   216.0000 </r>
       <r>   -16.5126     0.0000   216.0000 </r>
       <r>   -16.3775     0.0000   216.0000 </r>
       <r>   -16.2425     0.0000   216.0000 </r>
       <r>   -16.1074     0.0000   216.0000 </r>
       <r>   -15.9724     0.0000   216.0000 </r>
       <r>   -15.8373     0.0000   216.0000 </r>
       <r>   -15.7023     0.0097   216.0013 </r>
       <r>   -15.5672     1.4179   216.1928 </r>
       <r>   -15.4322     9.6135   217.4911 </r>
       <r>   -15.2971    13.6911   219.3401 </r>
       <r>   -15.1621    28.5788   223.1996 </r>
       <r>   -15.0270    51.3928   230.1401 </r>
       <r>   -14.8920    54.5133   237.5021 </r>
       <r>   -14.7569    38.7881   242.7404 </r>
       <r>   -14.6219    51.7844   249.7338 </r>
       <r>   -14.4868    55.2603   257.1966 </r>
       <r>   -14.3518   116.6237   272.9465 </r>
       <r>   -14.2167   181.2622   297.4257 </r>
       <r>   -14.0817   192.8786   323.4737 </r>
       <r>   -13.9466   185.7554   348.5597 </r>
       <r>   -13.8116    79.1371   359.2471 </r>
       <r>   -13.6765     5.5381   359.9950 </r>
       <r>   -13.5415     0.0368   360.0000 </r>
       <r>   -13.4064     0.0000   360.0000 </r>
       <r>   -13.2714     0.0000   360.0000 </r>
       <r>   -13.1363     0.0000   360.0000 </r>
       <r>   -13.0013     0.0000   360.0000 </r>
       <r>   -12.8662     0.0000   360.0000 </r>
       <r>   -12.7312     0.0000   360.0000 </r>
       <r>   -12.5961     0.0000   360.0000 </r>
       <r>   -12.4611     0.0000   360.0000 </r>
       <r>   -12.3260     0.0000   360.0000 </r>
       <r>   -12.1910     0.0000   360.0000 </r>
       <r>   -12.0560     0.0000   360.0000 </r>
       <r>   -11.9209     0.0000   360.0000 </r>
       <r>   -11.7859     0.0000   360.0000 </r>
       <r>   -11.6508     0.0000   360.0000 </r>
       <r>   -11.5158     0.0000   360.0000 </r>
       <r>   -11.3807     0.0000   360.0000 </r>
       <r>   -11.2457     0.0000   360.0000 </r>
       <r>   -11.1106     0.0000   360.0000 </r>
       <r>   -10.9756     0.0000   360.0000 </r>
       <r>   -10.8405     0.0000   360.0000 </r>
       <r>   -10.7055     0.0000   360.0000 </r>
       <r>   -10.5704     0.0000   360.0000 </r>
       <r>   -10.4354     0.0000   360.0000 </r>
       <r>   -10.3003     0.0000   360.0000 </r>
       <r>   -10.1653     0.0000   360.0000 </r>
       <r>   -10.0302     0.0000   360.0000 </r>
       <r>    -9.8952     0.0000   360.0000 </r>
       <r>    -9.7601     0.0000   360.0000 </r>
       <r>    -9.6251     0.0000   360.0000 </r>
       <r>    -9.4900     0.0000   360.0000 </r>
       <r>    -9.3550     0.0000   360.0000 </r>
       <r>    -9.2199     0.0000   360.0000 </r>
       <r>    -9.0849     0.0000   360.0000 </r>
       <r>    -8.9498     0.0000   360.0000 </r>
       <r>    -8.8148     0.0000   360.0000 </r>
       <r>    -8.6797     0.0000   360.0000 </r>
       <r>    -8.5447     0.0000   360.0000 </r>
       <r>    -8.4096     0.0000   360.0000 </r>
       <r>    -8.2746     0.0000   360.0000 </r>
       <r>    -8.1395     0.0000   360.0000 </r>
       <r>    -8.0045     0.0000   360.0000 </r>
       <r>    -7.8694     0.0000   360.0000 </r>
       <r>    -7.7344     0.0000   360.0000 </r>
       <r>    -7.5993     0.0000   360.0000 </r>
       <r>    -7.4643     0.0000   360.0000 </r>
       <r>    -7.3292     0.0000   360.0000 </r>
       <r>    -7.1942     0.0000   360.0000 </r>
       <r>    -7.0591     0.0000   360.0000 </r>
       <r>    -6.9241     0.0000   360.0000 </r>
       <r>    -6.7891     0.0000   360.0000 </r>
       <r>    -6.6540     0.0000   360.0000 </r>
       <r>    -6.5190     0.0000   360.0000 </r>
       <r>    -6.3839     0.0000   360.0000 </r>
       <r>    -6.2489     0.0000   360.0000 </r>
       <r>    -6.1138     0.0000   360.0000 </r>
       <r>    -5.9788     0.0000   360.0000 </r>
       <r>    -5.8437     0.0000   360.0000 </r>
       <r>    -5.7087     0.0000   360.0000 </r>
       <r>    -5.5736     0.0000   360.0000 </r>
       <r>    -5.4386     0.0000   360.0000 </r>
       <r>    -5.3035     0.0000   360.0000 </r>
       <r>    -5.1685     0.0000   360.0000 </r>
       <r>    -5.0334     0.0000   360.0000 </r>
       <r>    -4.8984     0.0000   360.0000 </r>
       <r>    -4.7633     0.0000   360.0000 </r>
       <r>    -4.6283     0.0000   360.0000 </r>
       <r>    -4.4932     0.0000   360.0000 </r>
       <r>    -4.3582     0.0000   360.0000 </r>
       <r>    -4.2231     0.0000   360.0000 </r>
       <r>    -4.0881     0.0000   360.0000 </r>
       <r>    -3.9530     0.0000   360.0000 </r>
       <r>    -3.8180     0.0000   360.0000 </r>
       <r>    -3.6829     0.0000   360.0000 </r>
       <r>    -3.5479     0.0000   360.0000 </r>
       <r>    -3.4128     0.0000   360.0000 </r>
       <r>    -3.2778     0.0000   360.0000 </r>
       <r>    -3.1427     0.0000   360.0000 </r>
       <r>    -3.0077     0.0000   360.0000 </r>
       <r>    -2.8726     0.0004   360.0001 </r>
       <r>    -2.7376     0.4843   360.0655 </r>
       <r>    -2.6025    27.3546   363.7597 </r>
       <r>    -2.4675   132.9470   381.7140 </r>
       <r>    -2.3324   133.3556   399.7235 </r>
       <r>    -2.1974    55.3639   407.2003 </r>
       <r>    -2.0623    22.9893   410.3050 </r>
       <r>    -1.9273    70.1839   419.7832 </r>
       <r>    -1.7922   166.5821   442.2799 </r>
       <r>    -1.6572   181.5277   466.7950 </r>
       <r>    -1.5222   149.5964   486.9978 </r>
       <r>    -1.3871   119.2861   503.1072 </r>
       <r>    -1.2521    85.5954   514.6668 </r>
       <r>    -1.1170    95.0247   527.4997 </r>
       <r>    -0.9820    53.8681   534.7745 </r>
       <r>    -0.8469    42.9791   540.5788 </r>
       <r>    -0.7119    33.2818   545.0735 </r>
       <r>    -0.5768    75.4972   555.2693 </r>
       <r>    -0.4418   104.4300   569.3724 </r>
       <r>    -0.3067    60.6981   577.5696 </r>
       <r>    -0.1717   157.6375   598.8583 </r>
       <r>    -0.0366   122.3590   615.3828 </r>
       <r>     0.0984    99.3348   628.7978 </r>
       <r>     0.2335    83.1650   640.0291 </r>
       <r>     0.3685    53.7325   647.2856 </r>
       <r>     0.5036    45.9275   653.4881 </r>
       <r>     0.6386    79.9325   664.2829 </r>
       <r>     0.7737    93.4954   676.9093 </r>
       <r>     0.9087    58.1121   684.7573 </r>
       <r>     1.0438    96.7201   697.8192 </r>
       <r>     1.1788   114.8197   713.3255 </r>
       <r>     1.3139   108.1139   727.9261 </r>
       <r>     1.4489   153.3624   748.6375 </r>
       <r>     1.5840    95.9903   761.6008 </r>
       <r>     1.7190    75.7119   771.8256 </r>
       <r>     1.8541    98.7660   785.1639 </r>
       <r>     1.9891    41.0361   790.7057 </r>
       <r>     2.1242     9.3278   791.9654 </r>
       <r>     2.2592     0.2556   792.0000 </r>
       <r>     2.3943     0.0003   792.0000 </r>
       <r>     2.5293     0.0000   792.0000 </r>
       <r>     2.6644     0.0000   792.0000 </r>
       <r>     2.7994     0.0000   792.0000 </r>
       <r>     2.9345     0.0000   792.0000 </r>
       <r>     3.0695     0.0000   792.0000 </r>
       <r>     3.2046     0.0000   792.0000 </r>
       <r>     3.3396     0.0000   792.0000 </r>
       <r>     3.4747     0.0000   792.0000 </r>
       <r>     3.6097     0.0000   792.0000 </r>
       <r>     3.7447     0.0000   792.0000 </r>
       <r>     3.8798     0.0000   792.0000 </r>
       <r>     4.0148     0.0000   792.0000 </r>
       <r>     4.1499     0.0004   792.0001 </r>
       <r>     4.2849     0.2428   792.0328 </r>
       <r>     4.4200     6.4144   792.8991 </r>
       <r>     4.5550    15.9065   795.0472 </r>
       <r>     4.6901    12.1141   796.6832 </r>
       <r>     4.8251    26.6875   800.2873 </r>
       <r>     4.9602    63.9612   808.9252 </r>
       <r>     5.0952    91.4761   821.2789 </r>
       <r>     5.2303   176.9854   845.1806 </r>
       <r>     5.3653   143.3271   864.5367 </r>
       <r>     5.5004   138.2283   883.2043 </r>
       <r>     5.6354   250.3636   917.0156 </r>
       <r>     5.7705   174.8605   940.6303 </r>
       <r>     5.9055    53.4768   947.8522 </r>
       <r>     6.0406    27.4220   951.5555 </r>
       <r>     6.1756     3.2694   951.9971 </r>
       <r>     6.3107     0.0218   952.0000 </r>
       <r>     6.4457     0.0000   952.0000 </r>
       <r>     6.5808     0.0000   952.0000 </r>
       <r>     6.7158     0.0000   952.0000 </r>
       <r>     6.8509     0.0000   952.0000 </r>
       <r>     6.9859     0.0000   952.0000 </r>
       <r>     7.1210     0.0000   952.0000 </r>
       <r>     7.2560     0.0000   952.0000 </r>
       <r>     7.3911     0.0000   952.0000 </r>
       <r>     7.5261     0.0000   952.0000 </r>
       <r>     7.6612     0.0000   952.0000 </r>
       <r>     7.7962     0.0000   952.0000 </r>
      </set>
     </set>
    </array>
   </total>
  </dos>
 </calculation>
 <structure name="finalpos" >
  <crystal>
   <varray name="basis" >
    <v>      11.37684345       0.00000000       0.00000000 </v>
    <v>       0.00000000      11.37684345       0.00000000 </v>
    <v>       0.00000000       0.00000000       9.60457420 </v>
   </varray>
   <i name="volume">   1243.14469355 </i>
   <varray name="rec_basis" >
    <v>       0.08789784       0.00000000       0.00000000 </v>
    <v>       0.00000000       0.08789784       0.00000000 </v>
    <v>       0.00000000       0.00000000       0.10411706 </v>
   </varray>
  </crystal>
  <varray name="positions" >
   <v>       0.16666667       0.16666667       0.50000000 </v>
   <v>       0.16666667       0.50000000       0.50000000 </v>
   <v>       0.16666667       0.83333331       0.50000000 </v>
   <v>       0.50000000       0.16666667       0.50000000 </v>
   <v>       0.50000000       0.50000000       0.50000000 </v>
   <v>       0.50000000       0.83333331       0.50000000 </v>
   <v>       0.83333331       0.16666667       0.50000000 </v>
   <v>       0.83333331       0.50000000       0.50000000 </v>
   <v>       0.83333331       0.83333331       0.50000000 </v>
   <v>       0.16666667       0.00000000       0.75000000 </v>
   <v>       0.16666667       0.33333334       0.75000000 </v>
   <v>       0.16666667       0.66666669       0.75000000 </v>
   <v>       0.50000000       0.00000000       0.75000000 </v>
   <v>       0.50000000       0.33333334       0.75000000 </v>
   <v>       0.50000000       0.66666669       0.75000000 </v>
   <v>       0.83333331       0.00000000       0.75000000 </v>
   <v>       0.83333331       0.33333334       0.75000000 </v>
   <v>       0.83333331       0.66666669       0.75000000 </v>
   <v>       0.00000000       0.00000000       0.00000000 </v>
   <v>       0.00000000       0.33333334       0.00000000 </v>
   <v>       0.00000000       0.66666669       0.00000000 </v>
   <v>       0.33333334       0.00000000       0.00000000 </v>
   <v>       0.33333334       0.33333334       0.00000000 </v>
   <v>       0.33333334       0.66666669       0.00000000 </v>
   <v>       0.66666669       0.00000000       0.00000000 </v>
   <v>       0.66666669       0.33333334       0.00000000 </v>
   <v>       0.66666669       0.66666669       0.00000000 </v>
   <v>       0.00000000       0.16666667       0.25000000 </v>
   <v>       0.00000000       0.50000000       0.25000000 </v>
   <v>       0.00000000       0.83333331       0.25000000 </v>
   <v>       0.33333334       0.16666667       0.25000000 </v>
   <v>       0.33333334       0.50000000       0.25000000 </v>
   <v>       0.33333334       0.83333331       0.25000000 </v>
   <v>       0.66666669       0.16666667       0.25000000 </v>
   <v>       0.66666669       0.50000000       0.25000000 </v>
   <v>       0.66666669       0.83333331       0.25000000 </v>
   <v>       0.00000000       0.16666667       0.45789859 </v>
   <v>       0.00000000       0.50000000       0.45789859 </v>
   <v>       0.00000000       0.83333331       0.45789859 </v>
   <v>       0.33333334       0.16666667       0.45789859 </v>
   <v>       0.33333334       0.50000000       0.45789859 </v>
   <v>       0.33333334       0.83333331       0.45789859 </v>
   <v>       0.66666669       0.16666667       0.45789859 </v>
   <v>       0.66666669       0.50000000       0.45789859 </v>
   <v>       0.66666669       0.83333331       0.45789859 </v>
   <v>       0.16666667       0.16666667       0.70789862 </v>
   <v>       0.16666667       0.50000000       0.70789862 </v>
   <v>       0.16666667       0.83333331       0.70789862 </v>
   <v>       0.50000000       0.16666667       0.70789862 </v>
   <v>       0.50000000       0.50000000       0.70789862 </v>
   <v>       0.50000000       0.83333331       0.70789862 </v>
   <v>       0.83333331       0.16666667       0.70789862 </v>
   <v>       0.83333331       0.50000000       0.70789862 </v>
   <v>       0.83333331       0.83333331       0.70789862 </v>
   <v>       0.16666667       0.00000000       0.54210138 </v>
   <v>       0.16666667       0.33333334       0.54210138 </v>
   <v>       0.16666667       0.66666669       0.54210138 </v>
   <v>       0.50000000       0.00000000       0.54210138 </v>
   <v>       0.50000000       0.33333334       0.54210138 </v>
   <v>       0.50000000       0.66666669       0.54210138 </v>
   <v>       0.83333331       0.00000000       0.54210138 </v>
   <v>       0.83333331       0.33333334       0.54210138 </v>
   <v>       0.83333331       0.66666669       0.54210138 </v>
   <v>       0.00000000       0.00000000       0.79210138 </v>
   <v>       0.00000000       0.33333334       0.79210138 </v>
   <v>       0.00000000       0.66666669       0.79210138 </v>
   <v>       0.33333334       0.00000000       0.79210138 </v>
   <v>       0.33333334       0.33333334       0.79210138 </v>
   <v>       0.33333334       0.66666669       0.79210138 </v>
   <v>       0.66666669       0.00000000       0.79210138 </v>
   <v>       0.66666669       0.33333334       0.79210138 </v>
   <v>       0.66666669       0.66666669       0.79210138 </v>
   <v>       0.16666667       0.00000000       0.95789862 </v>
   <v>       0.16666667       0.33333334       0.95789862 </v>
   <v>       0.16666667       0.66666669       0.95789862 </v>
   <v>       0.50000000       0.00000000       0.95789862 </v>
   <v>       0.50000000       0.33333334       0.95789862 </v>
   <v>       0.50000000       0.66666669       0.95789862 </v>
   <v>       0.83333331       0.00000000       0.95789862 </v>
   <v>       0.83333331       0.33333334       0.95789862 </v>
   <v>       0.83333331       0.66666669       0.95789862 </v>
   <v>       0.00000000       0.00000000       0.20789860 </v>
   <v>       0.00000000       0.33333334       0.20789860 </v>
   <v>       0.00000000       0.66666669       0.20789860 </v>
   <v>       0.33333334       0.00000000       0.20789860 </v>
   <v>       0.33333334       0.33333334       0.20789860 </v>
   <v>       0.33333334       0.66666669       0.20789860 </v>
   <v>       0.66666669       0.00000000       0.20789860 </v>
   <v>       0.66666669       0.33333334       0.20789860 </v>
   <v>       0.66666669       0.66666669       0.20789860 </v>
   <v>       0.00000000       0.16666667       0.04210141 </v>
   <v>       0.00000000       0.50000000       0.04210141 </v>
   <v>       0.00000000       0.83333331       0.04210141 </v>
   <v>       0.33333334       0.16666667       0.04210141 </v>
   <v>       0.33333334       0.50000000       0.04210141 </v>
   <v>       0.33333334       0.83333331       0.04210141 </v>
   <v>       0.66666669       0.16666667       0.04210141 </v>
   <v>       0.66666669       0.50000000       0.04210141 </v>
   <v>       0.66666669       0.83333331       0.04210141 </v>
   <v>       0.16666667       0.16666667       0.29210141 </v>
   <v>       0.16666667       0.50000000       0.29210141 </v>
   <v>       0.16666667       0.83333331       0.29210141 </v>
   <v>       0.50000000       0.16666667       0.29210141 </v>
   <v>       0.50000000       0.50000000       0.29210141 </v>
   <v>       0.50000000       0.83333331       0.29210141 </v>
   <v>       0.83333331       0.16666667       0.29210141 </v>
   <v>       0.83333331       0.50000000       0.29210141 </v>
   <v>       0.83333331       0.83333331       0.29210141 </v>
  </varray>
 </structure>
</modeling>
