unknown system
           1
    11.823067    0.000000    0.000000
     0.000000   11.823067    0.000000
     0.000000    0.000000   11.823067
   Sr   Ti   O
    27    27    81
Direct configuration=     1
   0.00508764  0.00334584  0.99469988
   0.99704214  0.99418755  0.34149966
   0.00156477  0.99667587  0.66994160
   0.00008208  0.33860289  0.00100603
   0.00541158  0.33290153  0.33678066
   0.99847888  0.34502485  0.66840367
   0.01055087  0.67044300  0.99342510
   0.00003813  0.66564014  0.32478595
   0.99332624  0.67025293  0.65745965
   0.33412013  0.00967153  0.00181889
   0.34050183  0.99744885  0.32467279
   0.33848953  0.99658668  0.66621028
   0.32961355  0.32564486  0.99998646
   0.32769458  0.32496259  0.34032022
   0.33237853  0.33239166  0.67113157
   0.33527423  0.66898430  0.00019079
   0.33800482  0.66208410  0.34114761
   0.31838022  0.65514663  0.66015868
   0.66784776  0.00251032  0.99787195
   0.67688182  0.99295187  0.33098004
   0.66134421  0.00527734  0.65826572
   0.66953019  0.33936401  0.99637257
   0.65645391  0.32320251  0.33701732
   0.66610003  0.34042573  0.68233133
   0.65936013  0.65559698  0.99409266
   0.65341051  0.66269237  0.32024030
   0.66260424  0.66205816  0.66081206
   0.16641486  0.16557168  0.17110991
   0.16667017  0.17259933  0.50772649
   0.16126456  0.17633796  0.83920024
   0.16966914  0.49535137  0.16366695
   0.16810823  0.50284259  0.49784808
   0.16525047  0.50194353  0.82735902
   0.17356131  0.82925843  0.16691895
   0.17114549  0.83530290  0.50645305
   0.17498061  0.83941285  0.83348430
   0.50592709  0.17070555  0.16779473
   0.49418397  0.16606413  0.50963040
   0.49953653  0.16584310  0.83728418
   0.49983716  0.49622954  0.16296610
   0.49712640  0.49977756  0.49191606
   0.49053061  0.50556913  0.82633615
   0.49972861  0.83836512  0.16884871
   0.50135382  0.83639720  0.49901162
   0.50020928  0.83651053  0.83353474
   0.83484077  0.16912248  0.16867763
   0.82624316  0.16194319  0.49977739
   0.82989605  0.17322877  0.82933793
   0.82966697  0.50587308  0.16544199
   0.82946622  0.49206341  0.49786447
   0.82665985  0.51100508  0.82573125
   0.83923075  0.83697649  0.16090213
   0.82958264  0.82708409  0.50461147
   0.82864133  0.83742113  0.83489768
   0.17465684  0.00032554  0.16814866
   0.18694336  0.00013541  0.50282657
   0.17743380  0.99895111  0.82218069
   0.17288852  0.32946022  0.17058666
   0.16656783  0.33774585  0.50935090
   0.15009922  0.33961535  0.83332836
   0.17121045  0.66509865  0.15943060
   0.16814242  0.66450860  0.51034140
   0.18724195  0.66731260  0.84409752
   0.50304393  0.00637757  0.16916931
   0.48565625  0.99930137  0.49264324
   0.50669048  0.99955470  0.82958639
   0.50877080  0.32840349  0.15484814
   0.50418485  0.32808730  0.51460157
   0.50040214  0.33037911  0.84420156
   0.49108577  0.66610173  0.17401911
   0.49789648  0.66026417  0.50528900
   0.48566352  0.66679591  0.82955644
   0.84341134  0.99908526  0.18197556
   0.83892260  0.00402629  0.52035076
   0.83797731  0.99984438  0.82944927
   0.83163199  0.32746807  0.16761549
   0.83779923  0.33282819  0.50148610
   0.83106685  0.33915817  0.83681010
   0.84305998  0.66530478  0.16110409
   0.83544615  0.66430689  0.50758078
   0.82570272  0.67043394  0.84340083
   0.16713612  0.16836808  0.00173546
   0.16408541  0.17133868  0.33778422
   0.16771838  0.17484473  0.66819252
   0.16046689  0.49199184  0.00101381
   0.15486200  0.50841204  0.33928271
   0.17755483  0.50368300  0.67039361
   0.17714494  0.84514349  0.00080236
   0.16840044  0.83027859  0.32883608
   0.17685604  0.82965735  0.66513250
   0.51872615  0.15838246  0.00529091
   0.49245935  0.18587255  0.33628900
   0.49826915  0.15715229  0.67348624
   0.49929420  0.51547894  0.00283834
   0.51488870  0.48962832  0.33324620
   0.49547200  0.50339126  0.66634043
   0.50768221  0.83027034  0.99911558
   0.49826788  0.83458621  0.33320515
   0.50797674  0.83853673  0.66227265
   0.81598817  0.16151613  0.00009528
   0.84038690  0.16299092  0.33633952
   0.84076504  0.17603408  0.66760509
   0.83687960  0.48655962  0.00366805
   0.82819167  0.49186760  0.33685602
   0.82957580  0.49707659  0.67453558
   0.83316869  0.84175020  0.00637800
   0.84308204  0.83457866  0.33870297
   0.84113451  0.82841765  0.66653862
   0.00651169  0.17436625  0.16761820
   0.00337390  0.15469557  0.50472297
   0.99808535  0.16337996  0.84275215
   0.00336483  0.48957952  0.17507730
   0.00137141  0.49649570  0.51223438
   0.99468641  0.50998706  0.84180669
   0.00177910  0.83337322  0.16239094
   0.00666766  0.82591599  0.49996405
   0.00436282  0.83419368  0.83124935
   0.33815379  0.16868831  0.15995444
   0.33387096  0.17916551  0.50596933
   0.33337473  0.17597788  0.83824633
   0.33384868  0.49166107  0.18879131
   0.33806926  0.50211608  0.47631400
   0.33088373  0.49457661  0.83668190
   0.33816629  0.82807299  0.16382849
   0.34266264  0.82982873  0.48405130
   0.34067054  0.84190044  0.83166123
   0.67180044  0.16452681  0.17603300
   0.66737523  0.15549693  0.49922096
   0.66494726  0.16841522  0.82342218
   0.66593525  0.50471614  0.16849263
   0.66883493  0.50516814  0.50422194
   0.65520012  0.50609374  0.83136551
   0.66866478  0.82729529  0.17094571
   0.66461342  0.84147596  0.49561708
   0.67523092  0.82009192  0.82780152
Direct configuration=     2
   0.00504544  0.00380422  0.99503363
   0.99695186  0.99422473  0.34142938
   0.00179585  0.99675230  0.66998735
   0.00024210  0.33868173  0.00073889
   0.00554461  0.33273676  0.33671679
   0.99827617  0.34496712  0.66866340
   0.01058177  0.67032656  0.99359756
   0.00016602  0.66565758  0.32491888
   0.99366731  0.67023168  0.65730781
   0.33417763  0.00977552  0.00206056
   0.34065590  0.99731251  0.32457123
   0.33856017  0.99623500  0.66601661
   0.32968648  0.32575863  0.99971462
   0.32775479  0.32490086  0.34033273
   0.33228892  0.33218862  0.67123546
   0.33542800  0.66923204  0.00029353
   0.33810151  0.66204189  0.34080658
   0.31838576  0.65498567  0.66016475
   0.66776708  0.00263160  0.99769074
   0.67710874  0.99279859  0.33094648
   0.66136511  0.00527577  0.65827640
   0.66976655  0.33928429  0.99622819
   0.65633372  0.32320539  0.33677401
   0.66606797  0.34021525  0.68234294
   0.65928509  0.65534866  0.99421086
   0.65334392  0.66281619  0.32033087
   0.66229345  0.66194788  0.66098222
   0.16635178  0.16555770  0.17117827
   0.16612181  0.17263140  0.50759652
   0.16100559  0.17676785  0.83913531
   0.17002088  0.49547748  0.16360443
   0.16824723  0.50248915  0.49795818
   0.16535938  0.50213799  0.82748523
   0.17349248  0.82921192  0.16717477
   0.17140491  0.83539539  0.50625372
   0.17458168  0.83918174  0.83347840
   0.50560394  0.17049549  0.16802595
   0.49450454  0.16600512  0.50987271
   0.49935935  0.16594094  0.83709092
   0.49993963  0.49637296  0.16279389
   0.49727868  0.50008906  0.49226556
   0.49055016  0.50553842  0.82631550
   0.49952854  0.83840188  0.16867661
   0.50149541  0.83600804  0.49950327
   0.50017784  0.83687507  0.83355560
   0.83529385  0.16894627  0.16863738
   0.82615905  0.16183994  0.49998075
   0.82962381  0.17343661  0.82932103
   0.82948932  0.50600091  0.16517944
   0.82939232  0.49229765  0.49819486
   0.82642656  0.51095440  0.82587227
   0.83910647  0.83690651  0.16113564
   0.82917972  0.82712130  0.50450673
   0.82834056  0.83725839  0.83458115
   0.17456811  0.00037558  0.16806103
   0.18728733 -0.00002587  0.50303240
   0.17772001  0.99915819  0.82239807
   0.17259777  0.32948712  0.17047400
   0.16717378  0.33783222  0.50916359
   0.14981221  0.34004744  0.83340262
   0.17169694  0.66484914  0.15993975
   0.16813469  0.66504260  0.51031571
   0.18751902  0.66715285  0.84438181
   0.50257205  0.00629340  0.16855312
   0.48576943  0.99936262  0.49246572
   0.50677630  0.99973439  0.82954876
   0.50901734  0.32846066  0.15469250
   0.50404968  0.32780276  0.51442860
   0.50032221  0.33104974  0.84431244
   0.49105652  0.66602997  0.17436712
   0.49803094  0.66062433  0.50584627
   0.48648474  0.66695381  0.82952194
   0.84381143  0.99903780  0.18191693
   0.83921364  0.00368449  0.52020423
   0.83770213  0.99972971  0.82951114
   0.83128886  0.32744788  0.16755350
   0.83779314  0.33313995  0.50146277
   0.83145726  0.33913702  0.83766310
   0.84336152  0.66590511  0.16129050
   0.83518049  0.66479034  0.50753616
   0.82584624  0.67022212  0.84289818
   0.16704720  0.16785046  0.00178815
   0.16372960  0.17146972  0.33778159
   0.16714461  0.17467063  0.66785864
   0.16063004  0.49205025  0.00135545
   0.15476051  0.50829164  0.33962648
   0.17752111  0.50393260  0.66999424
   0.17679055  0.84540672  0.00073894
   0.16885772  0.83048809  0.32930787
   0.17661929  0.82974361  0.66543604
   0.51850368  0.15818600  0.00500930
   0.49198995  0.18565303  0.33581924
   0.49855274  0.15760151  0.67329547
   0.49954260  0.51532692  0.00251783
   0.51472801  0.48947191  0.33323884
   0.49547295  0.50333478  0.66624063
   0.50767784  0.83006341  0.99859849
   0.49803673  0.83461418  0.33356237
   0.50823325  0.83875626  0.66185936
   0.81550546  0.16146090  0.00045677
   0.83994095  0.16271640  0.33616422
   0.84087276  0.17604042  0.66742608
   0.83694097  0.48633121  0.00328150
   0.82801898  0.49141176  0.33748245
   0.83010403  0.49744912  0.67410644
   0.83317746  0.84153040  0.00664705
   0.84278409  0.83462529  0.33851007
   0.84094520  0.82829882  0.66663034
   0.00646461  0.17438050  0.16732991
   0.00360147  0.15463403  0.50397119
   0.99794745  0.16327243  0.84273258
   0.00355433  0.48947034  0.17549685
   0.00175361  0.49614161  0.51206944
   0.99544648  0.50996319  0.84216824
   0.00114262  0.83371725  0.16211033
   0.00661526  0.82644187  0.49992513
   0.00394385  0.83423851  0.83147064
   0.33813503  0.16834396  0.16025073
   0.33362585  0.17898659  0.50572296
   0.33320723  0.17573106  0.83819245
   0.33332969  0.49229789  0.18870962
   0.33838943  0.50209292  0.47634903
   0.33082994  0.49454957  0.83648082
   0.33755470  0.82870036  0.16414139
   0.34259562  0.82942058  0.48387110
   0.34069960  0.84204380  0.83167336
   0.67145459  0.16434838  0.17621835
   0.66752223  0.15581353  0.49918272
   0.66504214  0.16829455  0.82367477
   0.66648278  0.50441279  0.16809948
   0.66842436  0.50585145  0.50430476
   0.65486057  0.50601695  0.83108712
   0.66902325  0.82779370  0.17067908
   0.66461703  0.84109733  0.49518175
   0.67510393  0.82020871  0.82787618
Direct configuration=     3
   0.00500105  0.00425942  0.99537042
   0.99686540  0.99426331  0.34135818
   0.00202465  0.99683167  0.67003171
   0.00039684  0.33876217  0.00047493
   0.00567268  0.33257230  0.33665090
   0.99807146  0.34490328  0.66892044
   0.01060891  0.67020937  0.99377146
   0.00029420  0.66567637  0.32505450
   0.99401022  0.67021125  0.65715779
   0.33423404  0.00987575  0.00230263
   0.34080510  0.99717796  0.32447577
   0.33862713  0.99588590  0.66582361
   0.32976230  0.32587605  0.99944609
   0.32781667  0.32484067  0.34034141
   0.33220103  0.33198413  0.67133738
   0.33558292  0.66947978  0.00039674
   0.33819459  0.66200492  0.34045917
   0.31840296  0.65483409  0.66017480
   0.66768736  0.00275324  0.99751211
   0.67733304  0.99264733  0.33091138
   0.66138935  0.00527138  0.65829273
   0.67000303  0.33920086  0.99608661
   0.65622024  0.32321101  0.33653012
   0.66603347  0.34000282  0.68234800
   0.65921213  0.65510920  0.99433133
   0.65328365  0.66294187  0.32042591
   0.66198036  0.66184086  0.66115215
   0.16629454  0.16553835  0.17125689
   0.16556142  0.17264218  0.50745545
   0.16075101  0.17717733  0.83905347
   0.17035632  0.49560422  0.16355116
   0.16836839  0.50213510  0.49805595
   0.16545795  0.50234947  0.82764232
   0.17340990  0.82917673  0.16743618
   0.17166244  0.83549280  0.50602527
   0.17417222  0.83894251  0.83347939
   0.50527690  0.17027747  0.16826537
   0.49482380  0.16595178  0.51008934
   0.49918909  0.16604785  0.83690808
   0.50003045  0.49652173  0.16262691
   0.49744940  0.50038943  0.49263061
   0.49057504  0.50550215  0.82630648
   0.49934187  0.83842613  0.16850007
   0.50162378  0.83561107  0.49999367
   0.50015112  0.83722602  0.83357108
   0.83574552  0.16877249  0.16859162
   0.82610945  0.16174692  0.50018615
   0.82935596  0.17363692  0.82931466
   0.82933702  0.50610201  0.16491562
   0.82932437  0.49254226  0.49851273
   0.82620970  0.51089039  0.82605926
   0.83897890  0.83683521  0.16139487
   0.82879410  0.82716343  0.50438514
   0.82806699  0.83709977  0.83426098
   0.17447558  0.00043202  0.16797802
   0.18760270 -0.00019792  0.50324694
   0.17797851  0.99942370  0.82263521
   0.17231821  0.32955090  0.17036102
   0.16778489  0.33791742  0.50896181
   0.14955319  0.34042225  0.83347251
   0.17217693  0.66459070  0.16043997
   0.16814317  0.66558416  0.51027820
   0.18775556  0.66700490  0.84464803
   0.50209736  0.00611995  0.16795521
   0.48591290  0.99946218  0.49230647
   0.50685982  0.99990886  0.82953812
   0.50925679  0.32861689  0.15453105
   0.50392716  0.32757562  0.51425807
   0.50024448  0.33174145  0.84440183
   0.49105186  0.66594609  0.17471583
   0.49818386  0.66102545  0.50637117
   0.48732024  0.66713896  0.82948558
   0.84419338  0.99899706  0.18182585
   0.83948617  0.00327277  0.52002363
   0.83740184  0.99962441  0.82957159
   0.83094514  0.32747093  0.16750142
   0.83776797  0.33342402  0.50145062
   0.83183937  0.33908527  0.83850140
   0.84364676  0.66649406  0.16149462
   0.83490507  0.66527640  0.50748614
   0.82601482  0.66997910  0.84239452
   0.16696667  0.16733253  0.00180367
   0.16340300  0.17159984  0.33777047
   0.16657248  0.17449524  0.66759074
   0.16083004  0.49211729  0.00171041
   0.15467373  0.50815670  0.33994137
   0.17747650  0.50416714  0.66956958
   0.17642369  0.84565457  0.00064079
   0.16931346  0.83069031  0.32980399
   0.17638843  0.82982703  0.66576780
   0.51824723  0.15799059  0.00465647
   0.49153511  0.18539832  0.33535947
   0.49882569  0.15805970  0.67306439
   0.49977054  0.51514268  0.00219713
   0.51456386  0.48931775  0.33322394
   0.49545277  0.50324888  0.66613439
   0.50767220  0.82986831  0.99808438
   0.49783984  0.83463809  0.33387843
   0.50848081  0.83897550  0.66148111
   0.81506286  0.16140368  0.00081020
   0.83948661  0.16244519  0.33601845
   0.84096009  0.17605227  0.66726641
   0.83696491  0.48614744  0.00289845
   0.82785972  0.49098971  0.33808199
   0.83062849  0.49783012  0.67360129
   0.83318293  0.84132126  0.00681585
   0.84246681  0.83466362  0.33832845
   0.84073966  0.82817712  0.66674105
   0.00636925  0.17437033  0.16702200
   0.00383770  0.15459944  0.50321704
   0.99782998  0.16317311  0.84270840
   0.00372059  0.48938031  0.17590394
   0.00212028  0.49580498  0.51190885
   0.99623854  0.50995328  0.84247500
   0.00055823  0.83404849  0.16182798
   0.00656169  0.82699944  0.49989898
   0.00355343  0.83426545  0.83170645
   0.33810236  0.16799894  0.16054851
   0.33338277  0.17879848  0.50548792
   0.33302644  0.17547846  0.83815078
   0.33283431  0.49293152  0.18859122
   0.33865800  0.50204441  0.47643484
   0.33075896  0.49449318  0.83628427
   0.33694638  0.82935483  0.16444999
   0.34244266  0.82899039  0.48374065
   0.34071631  0.84218605  0.83168532
   0.67109046  0.16415317  0.17642878
   0.66762902  0.15613558  0.49914757
   0.66516042  0.16817726  0.82392497
   0.66702739  0.50411782  0.16768770
   0.66800182  0.50651078  0.50440369
   0.65459682  0.50593438  0.83081456
   0.66936813  0.82830427  0.17041818
   0.66467212  0.84070870  0.49475106
   0.67486981  0.82035950  0.82795836
Direct configuration=     4
   0.00495439  0.00471091  0.99571009
   0.99678268  0.99430304  0.34128615
   0.00225123  0.99691358  0.67007475
   0.00054632  0.33884427  0.00021456
   0.00579563  0.33240864  0.33658301
   0.99786497  0.34483369  0.66917453
   0.01063217  0.67009177  0.99394681
   0.00042264  0.66569634  0.32519294
   0.99435479  0.67019184  0.65700940
   0.33428903  0.00997224  0.00254474
   0.34094944  0.99704533  0.32438679
   0.33869010  0.99553953  0.66563132
   0.32984100  0.32599695  0.99918108
   0.32788025  0.32478206  0.34034652
   0.33211482  0.33177830  0.67143694
   0.33573886  0.66972749  0.00050020
   0.33828384  0.66197309  0.34010596
   0.31843157  0.65469203  0.66018862
   0.66760883  0.00287509  0.99733627
   0.67755461  0.99249828  0.33087458
   0.66141700  0.00526400  0.65831470
   0.67023936  0.33911349  0.99594825
   0.65611352  0.32321918  0.33628559
   0.66599639  0.33978871  0.68234630
   0.65914142  0.65487902  0.99445376
   0.65322986  0.66306941  0.32052553
   0.66166527  0.66173726  0.66132193
   0.16624361  0.16551401  0.17134549
   0.16499256  0.17263148  0.50730315
   0.16050125  0.17756426  0.83895524
   0.17067369  0.49573081  0.16350813
   0.16847181  0.50178251  0.49814097
   0.16554600  0.50257813  0.82782850
   0.17331224  0.82915340  0.16770250
   0.17191720  0.83559435  0.50576901
   0.17375272  0.83869767  0.83348713
   0.50494778  0.17005277  0.16851218
   0.49513890  0.16590408  0.51027866
   0.49902532  0.16616399  0.83673712
   0.50010941  0.49667407  0.16246607
   0.49763772  0.50067774  0.49301016
   0.49060433  0.50546086  0.82630864
   0.49916930  0.83843866  0.16832046
   0.50173768  0.83520745  0.50048059
   0.50012883  0.83756229  0.83358108
   0.83619329  0.16860128  0.16854078
   0.82609445  0.16166417  0.50039176
   0.82909350  0.17382778  0.82931998
   0.82921232  0.50617634  0.16465230
   0.82926280  0.49279689  0.49881702
   0.82601026  0.51081381  0.82628953
   0.83884806  0.83676353  0.16167791
   0.82842757  0.82721054  0.50424707
   0.82782138  0.83694615  0.83393873
   0.17437840  0.00049395  0.16790092
   0.18788851 -0.00037742  0.50346954
   0.17820791  0.99974370  0.82289106
   0.17205166  0.32964865  0.17024771
   0.16839946  0.33799856  0.50874701
   0.14932326  0.34073575  0.83353790
   0.17264851  0.66432992  0.16093054
   0.16816753  0.66612680  0.51022879
   0.18795148  0.66687072  0.84489637
   0.50162035  0.00585525  0.16737590
   0.48608718  0.99959818  0.49216688
   0.50694120  1.00007959  0.82955236
   0.50948711  0.32887092  0.15436348
   0.50381852  0.32740754  0.51409011
   0.50016920  0.33244688  0.84446888
   0.49107188  0.66585229  0.17506236
   0.49835445  0.66146505  0.50686282
   0.48816754  0.66734924  0.82944661
   0.84455646  0.99896611  0.18170314
   0.83973807  0.00279864  0.51981005
   0.83707663  0.99953134  0.82962973
   0.83060196  0.32753742  0.16745901
   0.83772313  0.33367599  0.50145118
   0.83221209  0.33900376  0.83932023
   0.84391390  0.66706086  0.16171622
   0.83462171  0.66575983  0.50743043
   0.82620658  0.66970401  0.84189150
   0.16689470  0.16681741  0.00178093
   0.16310559  0.17172832  0.33774897
   0.16600162  0.17432061  0.66739205
   0.16106715  0.49219307  0.00207458
   0.15460294  0.50800777  0.34022487
   0.17742119  0.50438604  0.66912784
   0.17604543  0.84588453  0.00051208
   0.16976488  0.83088515  0.33031763
   0.17616355  0.82990723  0.66612596
   0.51795623  0.15779801  0.00423355
   0.49109660  0.18510900  0.33491214
   0.49908841  0.15852588  0.67279772
   0.49997707  0.51492836  0.00188037
   0.51439729  0.48916755  0.33319954
   0.49541139  0.50313369  0.66602275
   0.50766407  0.82968478  0.99758101
   0.49767799  0.83465746  0.33414558
   0.50871941  0.83919520  0.66114322
   0.81466170  0.16134491  0.00115145
   0.83902548  0.16217802  0.33590563
   0.84102693  0.17607019  0.66712764
   0.83695169  0.48601102  0.00252066
   0.82771317  0.49060391  0.33864787
   0.83114800  0.49821748  0.67303318
   0.83318370  0.84112204  0.00688164
   0.84213066  0.83469365  0.33815961
   0.84051740  0.82805306  0.66686922
   0.00622566  0.17433630  0.16669510
   0.00407622  0.15459169  0.50246259
   0.99773169  0.16308339  0.84267951
   0.00385999  0.48931082  0.17629667
   0.00246770  0.49548717  0.51175364
   0.99705475  0.50995753  0.84272647
   0.00003686  0.83436519  0.16154691
   0.00650684  0.82758718  0.49988527
   0.00319474  0.83427382  0.83195552
   0.33805352  0.16765516  0.16084631
   0.33314577  0.17860109  0.50526544
   0.33283489  0.17522309  0.83811971
   0.33237152  0.49355977  0.18843585
   0.33887489  0.50197245  0.47657100
   0.33067294  0.49440840  0.83609290
   0.33634966  0.83003349  0.16475243
   0.34220892  0.82854025  0.48366164
   0.34072103  0.84232598  0.83169682
   0.67071014  0.16394082  0.17666330
   0.66769573  0.15646169  0.49911637
   0.66530034  0.16806568  0.82417049
   0.66756209  0.50383412  0.16725813
   0.66757102  0.50714476  0.50451895
   0.65441576  0.50584562  0.83054782
   0.66968994  0.82882541  0.17016433
   0.66477641  0.84031164  0.49432603
   0.67452927  0.82054330  0.82804741
