 vasp.6.3.0 20Jan22 (build Mar 29 2022 16:24:06) complex

 executed on             Bridges2 date 2023.01.05  14:44:16
 running on   64 total cores
 distrk:  each k-point on   64 cores,    1 groups
 distr:  one band on NCORE=   8 cores,    8 groups


--------------------------------------------------------------------------------------------------------p


 INCAR:
   ICHARG = 2
   LWAVE = .FALSE.
   LCHARG = .FALSE.
   LVTOT = .FALSE.
   NCORE = 8
   EDIFF = 1E-3
   NELM = 80
   PREC = Normal
   LREAL = Auto
   NELMIN = 4
   ENCUT = 400.0 eV
   ISMEAR = 0
   SIGMA = 0.10
   NSW = 3000
   IBRION = 0
   MDALGO = 2
   TEBEG = 0
   TEEND = 300
   SMASS = 0.3
   ISIF = 2
   ISYM = 0
   POTIM = 1.0
   IVDW = 12
   NBLOCK = 1
   NWRITE = 1
   ISPIN = 1
   ML_LMLFF = .TRUE.
   ML_ISTART = 0

 POTCAR:    PAW_PBE Ti_pv 07Sep2000
 POTCAR:    PAW_PBE O 08Apr2002
 POTCAR:    PAW_PBE Ti_pv 07Sep2000
  local pseudopotential read in
  partial core-charges read in
  partial kinetic energy density read in
  atomic valenz-charges read in
  non local Contribution for L=           1  read in
    real space projection operators read in
  non local Contribution for L=           1  read in
    real space projection operators read in
  non local Contribution for L=           2  read in
    real space projection operators read in
  non local Contribution for L=           2  read in
    real space projection operators read in
  non local Contribution for L=           0  read in
    real space projection operators read in
  non local Contribution for L=           0  read in
    real space projection operators read in
    PAW grid and wavefunctions read in

   number of l-projection  operators is LMAX  =           6
   number of lm-projection operators is LMMAX =          18

 POTCAR:    PAW_PBE O 08Apr2002
  local pseudopotential read in
  partial core-charges read in
  partial kinetic energy density read in
  kinetic energy density of atom read in
  atomic valenz-charges read in
  non local Contribution for L=           0  read in
    real space projection operators read in
  non local Contribution for L=           0  read in
    real space projection operators read in
  non local Contribution for L=           1  read in
    real space projection operators read in
  non local Contribution for L=           1  read in
    real space projection operators read in
    PAW grid and wavefunctions read in

   number of l-projection  operators is LMAX  =           4
   number of lm-projection operators is LMMAX =           8

 Optimization of the real space projectors (new method)

 maximal supplied QI-value         = 15.12
 optimisation between [QCUT,QGAM] = [ 10.13, 20.41] = [ 28.73,116.64] Ry
 Optimized for a Real-space Cutoff    1.51 Angstroem

   l    n(q)    QCUT    max X(q) W(low)/X(q) W(high)/X(q)  e(spline)
   1      9    10.129     4.216    0.12E-04    0.72E-04    0.60E-07
   1      9    10.129     5.422    0.84E-04    0.21E-03    0.15E-06
   2      8    10.129    72.084    0.33E-03    0.35E-04    0.17E-06
   2      8    10.129    65.965    0.33E-03    0.37E-04    0.17E-06
   0      9    10.129    41.531    0.17E-03    0.19E-03    0.81E-07
   0      9    10.129    16.290    0.12E-03    0.14E-03    0.64E-07
 Optimization of the real space projectors (new method)

 maximal supplied QI-value         = 24.76
 optimisation between [QCUT,QGAM] = [ 10.15, 20.30] = [ 28.85,115.39] Ry
 Optimized for a Real-space Cutoff    1.38 Angstroem

   l    n(q)    QCUT    max X(q) W(low)/X(q) W(high)/X(q)  e(spline)
   0      8    10.150    20.381    0.22E-03    0.32E-03    0.29E-06
   0      8    10.150    15.268    0.23E-03    0.35E-03    0.30E-06
   1      8    10.150     5.964    0.46E-03    0.53E-03    0.21E-06
   1      8    10.150     5.382    0.38E-03    0.45E-03    0.19E-06
  PAW_PBE Ti_pv 07Sep2000               :
 energy of atom  1       EATOM=-1042.5995
 kinetic energy error for atom=    0.0037 (will be added to EATOM!!)
  PAW_PBE O 08Apr2002                   :
 energy of atom  2       EATOM= -432.3788
 kinetic energy error for atom=    0.1156 (will be added to EATOM!!)


 POSCAR: Ti4 O8
  positions in direct lattice
  velocities in cartesian coordinates

  MD-specific parameters
                MDALGO =   2
                 CNEXP =     9.000   14.000
 exchange correlation table for  LEXCH =        8
   RHO(1)=    0.500       N(1)  =     2000
   RHO(2)=  100.500       N(2)  =     4000



--------------------------------------------------------------------------------------------------------


 ion  position               nearest neighbor table
   1  0.167  0.167  0.500-  40 1.94  56 1.94  55 1.94  37 1.94  46 2.00 100 2.00  11 3.06  31 3.06
                            28 3.06  10 3.06
   2  0.167  0.500  0.500-  56 1.94  41 1.94  38 1.94  57 1.94  47 2.00 101 2.00  11 3.06  32 3.06
                            29 3.06  12 3.06
   3  0.167  0.833  0.500-  57 1.94  42 1.94  39 1.94  55 1.94  48 2.00 102 2.00  12 3.06  33 3.06
                            30 3.06  10 3.06
   4  0.500  0.167  0.500-  40 1.94  59 1.94  58 1.94  43 1.94  49 2.00 103 2.00  31 3.06  14 3.06
                            13 3.06  34 3.06
   5  0.500  0.500  0.500-  41 1.94  59 1.94  44 1.94  60 1.94  50 2.00 104 2.00  14 3.06  32 3.06
                            15 3.06  35 3.06
   6  0.500  0.833  0.500-  60 1.94  42 1.94  58 1.94  45 1.94  51 2.00 105 2.00  15 3.06  33 3.06
                            13 3.06  36 3.06
   7  0.833  0.167  0.500-  43 1.94  62 1.94  61 1.94  37 1.94  52 2.00 106 2.00  34 3.06  17 3.06
                            16 3.06  28 3.06
   8  0.833  0.500  0.500-  44 1.94  62 1.94  38 1.94  63 1.94  53 2.00 107 2.00  35 3.06  17 3.06
                            29 3.06  18 3.06
   9  0.833  0.833  0.500-  45 1.94  63 1.94  61 1.94  39 1.94  54 2.00 108 2.00  18 3.06  36 3.06
                            30 3.06  16 3.06
  10  0.167  0.000  0.750-  67 1.94  64 1.94  46 1.94  48 1.94  55 2.00  73 2.00  22 3.06  19 3.06
                             1 3.06   3 3.06
  11  0.167  0.333  0.750-  47 1.94  46 1.94  68 1.94  65 1.94  56 2.00  74 2.00   2 3.06   1 3.06
                            23 3.06  20 3.06
  12  0.167  0.667  0.750-  48 1.94  69 1.94  66 1.94  47 1.94  57 2.00  75 2.00   3 3.06  24 3.06
                            21 3.06   2 3.06
  13  0.500  0.000  0.750-  67 1.94  49 1.94  51 1.94  70 1.94  58 2.00  76 2.00  22 3.06   4 3.06
                             6 3.06  25 3.06
  14  0.500  0.333  0.750-  50 1.94  68 1.94  49 1.94  71 1.94  59 2.00  77 2.00   5 3.06  23 3.06
                             4 3.06  26 3.06
  15  0.500  0.667  0.750-  51 1.94  69 1.94  50 1.94  72 1.94  60 2.00  78 2.00   6 3.06  24 3.06
                             5 3.06  27 3.06
  16  0.833  0.000  0.750-  70 1.94  52 1.94  64 1.94  54 1.94  61 2.00  79 2.00  25 3.06   7 3.06
                            19 3.06   9 3.06
  17  0.833  0.333  0.750-  71 1.94  53 1.94  52 1.94  65 1.94  62 2.00  80 2.00  26 3.06   8 3.06
                             7 3.06  20 3.06
  18  0.833  0.667  0.750-  54 1.94  72 1.94  66 1.94  53 1.94  63 2.00  81 2.00   9 3.06  27 3.06
                            21 3.06   8 3.06
  19  0.000  0.000  0.000-  73 1.94  91 1.94  79 1.94  93 1.94  64 2.00  82 2.00  10 3.06  28 3.06
                            16 3.06  30 3.06
  20  0.000  0.333  0.000-  92 1.94  91 1.94  74 1.94  80 1.94  65 2.00  83 2.00  29 3.06  28 3.06
                            11 3.06  17 3.06
  21  0.000  0.667  0.000-  93 1.94  75 1.94  81 1.94  92 1.94  66 2.00  84 2.00  30 3.06  12 3.06
                            29 3.06  18 3.06
  22  0.333  0.000  0.000-  76 1.94  73 1.94  94 1.94  96 1.94  67 2.00  85 2.00  13 3.06  10 3.06
                            31 3.06  33 3.06
  23  0.333  0.333  0.000-  77 1.94  95 1.94  74 1.94  94 1.94  68 2.00  86 2.00  14 3.06  32 3.06
                            31 3.06  11 3.06
  24  0.333  0.667  0.000-  96 1.94  78 1.94  75 1.94  95 1.94  69 2.00  87 2.00  33 3.06  15 3.06
                            12 3.06  32 3.06
  25  0.667  0.000  0.000-  79 1.94  97 1.94  76 1.94  99 1.94  70 2.00  88 2.00  16 3.06  34 3.06
                            13 3.06  36 3.06
  26  0.667  0.333  0.000-  80 1.94  98 1.94  97 1.94  77 1.94  71 2.00  89 2.00  17 3.06  35 3.06
                            34 3.06  14 3.06
  27  0.667  0.667  0.000-  81 1.94  99 1.94  78 1.94  98 1.94  72 2.00  90 2.00  18 3.06  36 3.06
                            35 3.06  15 3.06
  28  0.000  0.167  0.250-  83 1.94  82 1.94 100 1.94 106 1.94  91 2.00  37 2.00  20 3.06  19 3.06
                             1 3.06   7 3.06
  29  0.000  0.500  0.250-  83 1.94 101 1.94  84 1.94 107 1.94  92 2.00  38 2.00  20 3.06   2 3.06
                             8 3.06  21 3.06
  30  0.000  0.833  0.250-  84 1.94 102 1.94  82 1.94 108 1.94  93 2.00  39 2.00  21 3.06   3 3.06
                            19 3.06   9 3.06
  31  0.333  0.167  0.250- 103 1.94 100 1.94  86 1.94  85 1.94  94 2.00  40 2.00   4 3.06   1 3.06
                            23 3.06  22 3.06
  32  0.333  0.500  0.250-  86 1.94 104 1.94 101 1.94  87 1.94  95 2.00  41 2.00   5 3.06  23 3.06
                             2 3.06  24 3.06
  33  0.333  0.833  0.250-  87 1.94 105 1.94 102 1.94  85 1.94  96 2.00  42 2.00  24 3.06   6 3.06
                             3 3.06  22 3.06
  34  0.667  0.167  0.250- 106 1.94  89 1.94  88 1.94 103 1.94  97 2.00  43 2.00   7 3.06  26 3.06
                            25 3.06   4 3.06
  35  0.667  0.500  0.250- 107 1.94  89 1.94 104 1.94  90 1.94  98 2.00  44 2.00   8 3.06  26 3.06
                             5 3.06  27 3.06
  36  0.667  0.833  0.250-  90 1.94 108 1.94 105 1.94  88 1.94  99 2.00  45 2.00   9 3.06  27 3.06
                            25 3.06   6 3.06
  37  0.000  0.167  0.458-   1 1.94   7 1.94  28 2.00
  38  0.000  0.500  0.458-   2 1.94   8 1.94  29 2.00
  39  0.000  0.833  0.458-   3 1.94   9 1.94  30 2.00
  40  0.333  0.167  0.458-   4 1.94   1 1.94  31 2.00
  41  0.333  0.500  0.458-   5 1.94   2 1.94  32 2.00
  42  0.333  0.833  0.458-   6 1.94   3 1.94  33 2.00
  43  0.667  0.167  0.458-   7 1.94   4 1.94  34 2.00
  44  0.667  0.500  0.458-   8 1.94   5 1.94  35 2.00
  45  0.667  0.833  0.458-   9 1.94   6 1.94  36 2.00
  46  0.167  0.167  0.708-  11 1.94  10 1.94   1 2.00
  47  0.167  0.500  0.708-  11 1.94  12 1.94   2 2.00
  48  0.167  0.833  0.708-  12 1.94  10 1.94   3 2.00
  49  0.500  0.167  0.708-  14 1.94  13 1.94   4 2.00
  50  0.500  0.500  0.708-  14 1.94  15 1.94   5 2.00
  51  0.500  0.833  0.708-  15 1.94  13 1.94   6 2.00
  52  0.833  0.167  0.708-  17 1.94  16 1.94   7 2.00
  53  0.833  0.500  0.708-  17 1.94  18 1.94   8 2.00
  54  0.833  0.833  0.708-  18 1.94  16 1.94   9 2.00
  55  0.167  0.000  0.542-   1 1.94   3 1.94  10 2.00
  56  0.167  0.333  0.542-   2 1.94   1 1.94  11 2.00
  57  0.167  0.667  0.542-   3 1.94   2 1.94  12 2.00
  58  0.500  0.000  0.542-   4 1.94   6 1.94  13 2.00
  59  0.500  0.333  0.542-   5 1.94   4 1.94  14 2.00
  60  0.500  0.667  0.542-   6 1.94   5 1.94  15 2.00
  61  0.833  0.000  0.542-   7 1.94   9 1.94  16 2.00
  62  0.833  0.333  0.542-   8 1.94   7 1.94  17 2.00
  63  0.833  0.667  0.542-   9 1.94   8 1.94  18 2.00
  64  0.000  0.000  0.792-  10 1.94  16 1.94  19 2.00
  65  0.000  0.333  0.792-  11 1.94  17 1.94  20 2.00
  66  0.000  0.667  0.792-  12 1.94  18 1.94  21 2.00
  67  0.333  0.000  0.792-  13 1.94  10 1.94  22 2.00
  68  0.333  0.333  0.792-  14 1.94  11 1.94  23 2.00
  69  0.333  0.667  0.792-  15 1.94  12 1.94  24 2.00
  70  0.667  0.000  0.792-  16 1.94  13 1.94  25 2.00
  71  0.667  0.333  0.792-  17 1.94  14 1.94  26 2.00
  72  0.667  0.667  0.792-  18 1.94  15 1.94  27 2.00
  73  0.167  0.000  0.958-  22 1.94  19 1.94  10 2.00
  74  0.167  0.333  0.958-  23 1.94  20 1.94  11 2.00
  75  0.167  0.667  0.958-  24 1.94  21 1.94  12 2.00
  76  0.500  0.000  0.958-  22 1.94  25 1.94  13 2.00
  77  0.500  0.333  0.958-  23 1.94  26 1.94  14 2.00
  78  0.500  0.667  0.958-  24 1.94  27 1.94  15 2.00
  79  0.833  0.000  0.958-  25 1.94  19 1.94  16 2.00
  80  0.833  0.333  0.958-  26 1.94  20 1.94  17 2.00
  81  0.833  0.667  0.958-  27 1.94  21 1.94  18 2.00
  82  0.000  0.000  0.208-  28 1.94  30 1.94  19 2.00
  83  0.000  0.333  0.208-  29 1.94  28 1.94  20 2.00
  84  0.000  0.667  0.208-  30 1.94  29 1.94  21 2.00
  85  0.333  0.000  0.208-  31 1.94  33 1.94  22 2.00
  86  0.333  0.333  0.208-  32 1.94  31 1.94  23 2.00
  87  0.333  0.667  0.208-  33 1.94  32 1.94  24 2.00
  88  0.667  0.000  0.208-  34 1.94  36 1.94  25 2.00
  89  0.667  0.333  0.208-  35 1.94  34 1.94  26 2.00
  90  0.667  0.667  0.208-  36 1.94  35 1.94  27 2.00
  91  0.000  0.167  0.042-  20 1.94  19 1.94  28 2.00
  92  0.000  0.500  0.042-  20 1.94  21 1.94  29 2.00
  93  0.000  0.833  0.042-  21 1.94  19 1.94  30 2.00
  94  0.333  0.167  0.042-  23 1.94  22 1.94  31 2.00
  95  0.333  0.500  0.042-  23 1.94  24 1.94  32 2.00
  96  0.333  0.833  0.042-  24 1.94  22 1.94  33 2.00
  97  0.667  0.167  0.042-  26 1.94  25 1.94  34 2.00
  98  0.667  0.500  0.042-  26 1.94  27 1.94  35 2.00
  99  0.667  0.833  0.042-  27 1.94  25 1.94  36 2.00
 100  0.167  0.167  0.292-  31 1.94  28 1.94   1 2.00
 101  0.167  0.500  0.292-  32 1.94  29 1.94   2 2.00
 102  0.167  0.833  0.292-  33 1.94  30 1.94   3 2.00
 103  0.500  0.167  0.292-  31 1.94  34 1.94   4 2.00
 104  0.500  0.500  0.292-  32 1.94  35 1.94   5 2.00
 105  0.500  0.833  0.292-  33 1.94  36 1.94   6 2.00
 106  0.833  0.167  0.292-  34 1.94  28 1.94   7 2.00
 107  0.833  0.500  0.292-  35 1.94  29 1.94   8 2.00
 108  0.833  0.833  0.292-  36 1.94  30 1.94   9 2.00


IMPORTANT INFORMATION: All symmetrisations will be switched off!
NOSYMM: (Re-)initialisation of all symmetry stuff for point group C_1.


----------------------------------------------------------------------------------------

                                     Primitive cell

  volume of cell :    1243.1447

  direct lattice vectors                    reciprocal lattice vectors
    11.376843422  0.000000000  0.000000000     0.087897843  0.000000000  0.000000000
     0.000000000 11.376843422  0.000000000     0.000000000  0.087897843  0.000000000
     0.000000000  0.000000000  9.604574574     0.000000000  0.000000000  0.104117053

  length of vectors
    11.376843422 11.376843422  9.604574574     0.087897843  0.087897843  0.104117053

  position of ions in fractional coordinates (direct lattice)
     0.166666672  0.166666672  0.500000000
     0.166666672  0.500000000  0.500000000
     0.166666672  0.833333313  0.500000000
     0.500000000  0.166666672  0.500000000
     0.500000000  0.500000000  0.500000000
     0.500000000  0.833333313  0.500000000
     0.833333313  0.166666672  0.500000000
     0.833333313  0.500000000  0.500000000
     0.833333313  0.833333313  0.500000000
     0.166666672  0.000000000  0.750000000
     0.166666672  0.333333343  0.750000000
     0.166666672  0.666666687  0.750000000
     0.500000000  0.000000000  0.750000000
     0.500000000  0.333333343  0.750000000
     0.500000000  0.666666687  0.750000000
     0.833333313  0.000000000  0.750000000
     0.833333313  0.333333343  0.750000000
     0.833333313  0.666666687  0.750000000
     0.000000000  0.000000000  0.000000000
     0.000000000  0.333333343  0.000000000
     0.000000000  0.666666687  0.000000000
     0.333333343  0.000000000  0.000000000
     0.333333343  0.333333343  0.000000000
     0.333333343  0.666666687  0.000000000
     0.666666687  0.000000000  0.000000000
     0.666666687  0.333333343  0.000000000
     0.666666687  0.666666687  0.000000000
     0.000000000  0.166666672  0.250000000
     0.000000000  0.500000000  0.250000000
     0.000000000  0.833333313  0.250000000
     0.333333343  0.166666672  0.250000000
     0.333333343  0.500000000  0.250000000
     0.333333343  0.833333313  0.250000000
     0.666666687  0.166666672  0.250000000
     0.666666687  0.500000000  0.250000000
     0.666666687  0.833333313  0.250000000
     0.000000000  0.166666672  0.457898600
     0.000000000  0.500000000  0.457898600
     0.000000000  0.833333313  0.457898600
     0.333333343  0.166666672  0.457898600
     0.333333343  0.500000000  0.457898600
     0.333333343  0.833333313  0.457898600
     0.666666687  0.166666672  0.457898600
     0.666666687  0.500000000  0.457898600
     0.666666687  0.833333313  0.457898600
     0.166666672  0.166666672  0.707898600
     0.166666672  0.500000000  0.707898600
     0.166666672  0.833333313  0.707898600
     0.500000000  0.166666672  0.707898600
     0.500000000  0.500000000  0.707898600
     0.500000000  0.833333313  0.707898600
     0.833333313  0.166666672  0.707898600
     0.833333313  0.500000000  0.707898600
     0.833333313  0.833333313  0.707898600
     0.166666672  0.000000000  0.542101400
     0.166666672  0.333333343  0.542101400
     0.166666672  0.666666687  0.542101400
     0.500000000  0.000000000  0.542101400
     0.500000000  0.333333343  0.542101400
     0.500000000  0.666666687  0.542101400
     0.833333313  0.000000000  0.542101400
     0.833333313  0.333333343  0.542101400
     0.833333313  0.666666687  0.542101400
     0.000000000  0.000000000  0.792101400
     0.000000000  0.333333343  0.792101400
     0.000000000  0.666666687  0.792101400
     0.333333343  0.000000000  0.792101400
     0.333333343  0.333333343  0.792101400
     0.333333343  0.666666687  0.792101400
     0.666666687  0.000000000  0.792101400
     0.666666687  0.333333343  0.792101400
     0.666666687  0.666666687  0.792101400
     0.166666672  0.000000000  0.957898600
     0.166666672  0.333333343  0.957898600
     0.166666672  0.666666687  0.957898600
     0.500000000  0.000000000  0.957898600
     0.500000000  0.333333343  0.957898600
     0.500000000  0.666666687  0.957898600
     0.833333313  0.000000000  0.957898600
     0.833333313  0.333333343  0.957898600
     0.833333313  0.666666687  0.957898600
     0.000000000  0.000000000  0.207898600
     0.000000000  0.333333343  0.207898600
     0.000000000  0.666666687  0.207898600
     0.333333343  0.000000000  0.207898600
     0.333333343  0.333333343  0.207898600
     0.333333343  0.666666687  0.207898600
     0.666666687  0.000000000  0.207898600
     0.666666687  0.333333343  0.207898600
     0.666666687  0.666666687  0.207898600
     0.000000000  0.166666672  0.042101404
     0.000000000  0.500000000  0.042101404
     0.000000000  0.833333313  0.042101404
     0.333333343  0.166666672  0.042101404
     0.333333343  0.500000000  0.042101404
     0.333333343  0.833333313  0.042101404
     0.666666687  0.166666672  0.042101404
     0.666666687  0.500000000  0.042101404
     0.666666687  0.833333313  0.042101404
     0.166666672  0.166666672  0.292101400
     0.166666672  0.500000000  0.292101400
     0.166666672  0.833333313  0.292101400
     0.500000000  0.166666672  0.292101400
     0.500000000  0.500000000  0.292101400
     0.500000000  0.833333313  0.292101400
     0.833333313  0.166666672  0.292101400
     0.833333313  0.500000000  0.292101400
     0.833333313  0.833333313  0.292101400

  ion indices of the primitive-cell ions
   primitive index   ion index
                 1           1
                 2           2
                 3           3
                 4           4
                 5           5
                 6           6
                 7           7
                 8           8
                 9           9
                10          10
                11          11
                12          12
                13          13
                14          14
                15          15
                16          16
                17          17
                18          18
                19          19
                20          20
                21          21
                22          22
                23          23
                24          24
                25          25
                26          26
                27          27
                28          28
                29          29
                30          30
                31          31
                32          32
                33          33
                34          34
                35          35
                36          36
                37          37
                38          38
                39          39
                40          40
                41          41
                42          42
                43          43
                44          44
                45          45
                46          46
                47          47
                48          48
                49          49
                50          50
                51          51
                52          52
                53          53
                54          54
                55          55
                56          56
                57          57
                58          58
                59          59
                60          60
                61          61
                62          62
                63          63
                64          64
                65          65
                66          66
                67          67
                68          68
                69          69
                70          70
                71          71
                72          72
                73          73
                74          74
                75          75
                76          76
                77          77
                78          78
                79          79
                80          80
                81          81
                82          82
                83          83
                84          84
                85          85
                86          86
                87          87
                88          88
                89          89
                90          90
                91          91
                92          92
                93          93
                94          94
                95          95
                96          96
                97          97
                98          98
                99          99
               100         100
               101         101
               102         102
               103         103
               104         104
               105         105
               106         106
               107         107
               108         108

----------------------------------------------------------------------------------------



 KPOINTS: K-Points

Automatic generation of k-mesh.
 Grid dimensions read from file:
 generate k-points for:    2    2    2

 Generating k-lattice:

  Cartesian coordinates                     Fractional coordinates (reciprocal lattice)
     0.043948922  0.000000000  0.000000000     0.500000000  0.000000000  0.000000000
     0.000000000  0.043948922  0.000000000     0.000000000  0.500000000  0.000000000
     0.000000000  0.000000000  0.052058527     0.000000000  0.000000000  0.500000000

  Length of vectors
     0.043948922  0.043948922  0.052058527

  Shift w.r.t. Gamma in fractional coordinates (k-lattice)
     0.500000000  0.500000000  0.500000000


 Subroutine IBZKPT returns following result:
 ===========================================

 Found      4 irreducible k-points:

 Following reciprocal coordinates:
            Coordinates               Weight
  0.250000  0.250000  0.250000      2.000000
 -0.250000  0.250000  0.250000      2.000000
 -0.250000 -0.250000  0.250000      2.000000
  0.250000 -0.250000  0.250000      2.000000

 Following cartesian coordinates:
            Coordinates               Weight
  0.021974  0.021974  0.026029      2.000000
 -0.021974  0.021974  0.026029      2.000000
 -0.021974 -0.021974  0.026029      2.000000
  0.021974 -0.021974  0.026029      2.000000



--------------------------------------------------------------------------------------------------------




 Dimension of arrays:
   k-points           NKPTS =      4   k-points in BZ     NKDIM =      4   number of bands    NBANDS=    480
   number of dos      NEDOS =    301   number of ions     NIONS =    108
   non local maximal  LDIM  =      6   non local SUM 2l+1 LMDIM =     18
   total plane-waves  NPLWV = 150528
   max r-space proj   IRMAX =   1791   max aug-charges    IRDMAX=   4900
   dimension x,y,z NGX =    56 NGY =   56 NGZ =   48
   dimension x,y,z NGXF=   112 NGYF=  112 NGZF=   96
   support grid    NGXF=   112 NGYF=  112 NGZF=   96
   ions per type =              36  72
   NGX,Y,Z   is equivalent  to a cutoff of   8.18,  8.18,  8.31 a.u.
   NGXF,Y,Z  is equivalent  to a cutoff of  16.37, 16.37, 16.62 a.u.

 SYSTEM =  unknown system
 POSCAR =  Ti4 O8

 Startparameter for this run:
   NWRITE =      1    write-flag & timer
   PREC   = normal    normal or accurate (medium, high low for compatibility)
   ISTART =      0    job   : 0-new  1-cont  2-samecut
   ICHARG =      2    charge: 1-file 2-atom 10-const
   ISPIN  =      1    spin polarized calculation?
   LNONCOLLINEAR =      F non collinear calculations
   LSORBIT =      F    spin-orbit coupling
   INIWAV =      1    electr: 0-lowe 1-rand  2-diag
   LASPH  =      F    aspherical Exc in radial PAW
 Electronic Relaxation 1
   ENCUT  =  400.0 eV  29.40 Ry    5.42 a.u.  18.55 18.55 15.66*2*pi/ulx,y,z
   ENINI  =  400.0     initial cutoff
   ENAUG  =  605.4 eV  augmentation charge cutoff
   NELM   =     80;   NELMIN=  4; NELMDL= -5     # of ELM steps
   EDIFF  = 0.1E-02   stopping-criterion for ELM
   LREAL  =      T    real-space projection
   NLSPLINE    = F    spline interpolate recip. space projectors
   LCOMPAT=      F    compatible to vasp.4.4
   GGA_COMPAT  = T    GGA compatible to vasp.4.4-vasp.4.6
   LMAXPAW     = -100 max onsite density
   LMAXMIX     =    2 max onsite mixed and CHGCAR
   VOSKOWN=      0    Vosko Wilk Nusair interpolation
   ROPT   =   -0.00050  -0.00050
 Ionic relaxation
   EDIFFG = 0.1E-01   stopping-criterion for IOM
   NSW    =   3000    number of steps for IOM
   NBLOCK =      1;   KBLOCK =   3000    inner block; outer block
   IBRION =      0    ionic relax: 0-MD 1-quasi-New 2-CG
   NFREE  =      0    steps in history (QN), initial steepest desc. (CG)
   ISIF   =      2    stress and relaxation
   IWAVPR =     11    prediction:  0-non 1-charg 2-wave 3-comb
   ISYM   =      0    0-nonsym 1-usesym 2-fastsym
   LCORR  =      T    Harris-Foulkes like correction to forces

   POTIM  = 1.0000    time-step for ionic-motion
   TEIN   =    0.0    initial temperature
   TEBEG  =    0.0;   TEEND  = 300.0 temperature during run
   SMASS  =   0.30    Nose mass-parameter (am)
   estimated Nose-frequenzy (Omega)   =  0.00E+00 period in steps = Infinity mass=   0.296E-27a.u.
   SCALEE = 1.0000    scale energy and forces
   NPACO  =    256;   APACO  = 10.0  distance and # of slots for P.C.
   PSTRESS=    0.0 pullay stress

  Mass of Ions in am
   POMASS =  47.88 16.00
  Ionic Valenz
   ZVAL   =  10.00  6.00
  Atomic Wigner-Seitz radii
   RWIGS  =  -1.00 -1.00
  virtual crystal weights
   VCA    =   1.00  1.00
   NELECT =     792.0000    total number of electrons
   NUPDOWN=      -1.0000    fix difference up-down

 DOS related values:
   EMIN   =  10.00;   EMAX   =-10.00  energy-range for DOS
   EFERMI =   0.00
   ISMEAR =     0;   SIGMA  =   0.10  broadening in eV -4-tet -1-fermi 0-gaus

 Electronic relaxation 2 (details)
   IALGO  =     38    algorithm
   LDIAG  =      T    sub-space diagonalisation (order eigenvalues)
   LSUBROT=      F    optimize rotation matrix (better conditioning)
   TURBO    =      0    0=normal 1=particle mesh
   IRESTART =      0    0=no restart 2=restart with 2 vectors
   NREBOOT  =      0    no. of reboots
   NMIN     =      0    reboot dimension
   EREF     =   0.00    reference energy to select bands
   IMIX   =      4    mixing-type and parameters
     AMIX     =   0.40;   BMIX     =  1.00
     AMIX_MAG =   1.60;   BMIX_MAG =  1.00
     AMIN     =   0.10
     WC   =   100.;   INIMIX=   1;  MIXPRE=   1;  MAXMIX= -45

 Intra band minimization:
   WEIMIN = 0.0010     energy-eigenvalue tresh-hold
   EBREAK =  0.52E-06  absolut break condition
   DEPER  =   0.30     relativ break condition

   TIME   =   0.40     timestep for ELM

  volume/ion in A,a.u.               =      11.51        77.68
  Fermi-wavevector in a.u.,A,eV,Ry     =   1.408670  2.662001 26.998744  1.984352
  Thomas-Fermi vector in A             =   2.530804

 Write flags
   LWAVE        =      F    write WAVECAR
   LDOWNSAMPLE  =      F    k-point downsampling of WAVECAR
   LCHARG       =      F    write CHGCAR
   LVTOT        =      F    write LOCPOT, total local potential
   LVHAR        =      F    write LOCPOT, Hartree potential only
   LELF         =      F    write electronic localiz. function (ELF)
   LORBIT       =      0    0 simple, 1 ext, 2 COOP (PROOUT), +10 PAW based schemes


 Dipole corrections
   LMONO  =      F    monopole corrections only (constant potential shift)
   LDIPOL =      F    correct potential (dipole corrections)
   IDIPOL =      0    1-x, 2-y, 3-z, 4-all directions
   EPSILON=  1.0000000 bulk dielectric constant

 Exchange correlation treatment:
   GGA     =    --    GGA type
   LEXCH   =     8    internal setting for exchange type
   LIBXC   =     F    Libxc
   VOSKOWN =     0    Vosko Wilk Nusair interpolation
   LHFCALC =     F    Hartree Fock is set to
   LHFONE  =     F    Hartree Fock one center treatment
   AEXX    =    0.0000 exact exchange contribution

 Linear response parameters
   LEPSILON=     F    determine dielectric tensor
   LRPA    =     F    only Hartree local field effects (RPA)
   LNABLA  =     F    use nabla operator in PAW spheres
   LVEL    =     F    velocity operator in full k-point grid
   CSHIFT  =0.1000    complex shift for real part using Kramers Kronig
   OMEGAMAX=  -1.0    maximum frequency
   DEG_THRESHOLD= 0.2000000E-02 threshold for treating states as degnerate
   RTIME   =   -0.100 relaxation time in fs
  (WPLASMAI=    0.000 imaginary part of plasma frequency in eV, 0.658/RTIME)
   DFIELD  = 0.0000000 0.0000000 0.0000000 field for delta impulse in time

  Optional k-point grid parameters
   LKPOINTS_OPT  =     F    use optional k-point grid
   KPOINTS_OPT_MODE=     1    mode for optional k-point grid

 Orbital magnetization related:
   ORBITALMAG=     F  switch on orbital magnetization
   LCHIMAG   =     F  perturbation theory with respect to B field
   DQ        =  0.001000  dq finite difference perturbation B field
   LLRAUG    =     F  two centre corrections for induced B field



--------------------------------------------------------------------------------------------------------


 molecular dynamics for ions
   using nose mass (canonical ensemble)
 charge density and potential will be updated during run
 non-spin polarized calculation
 Variant of blocked Davidson
 Davidson routine will perform the subspace rotation
 perform sub-space diagonalisation
    after iterative eigenvector-optimisation
 modified Broyden-mixing scheme, WC =      100.0
 initial mixing is a Kerker type mixing with AMIX =  0.4000 and BMIX =      1.0000
 Hartree-type preconditioning will be used
 using additional bands           84
 real space projection scheme for non local part
 use partial core corrections
 calculate Harris-corrections to forces
   (improved forces if not selfconsistent)
 use gradient corrections
 use of overlap-Matrix (Vanderbilt PP)
 Gauss-broadening in eV      SIGMA  =   0.10


--------------------------------------------------------------------------------------------------------


  energy-cutoff  :      400.00
  volume of cell :     1243.14
      direct lattice vectors                 reciprocal lattice vectors
    11.376843422  0.000000000  0.000000000     0.087897843  0.000000000  0.000000000
     0.000000000 11.376843422  0.000000000     0.000000000  0.087897843  0.000000000
     0.000000000  0.000000000  9.604574574     0.000000000  0.000000000  0.104117053

  length of vectors
    11.376843422 11.376843422  9.604574574     0.087897843  0.087897843  0.104117053



 k-points in units of 2pi/SCALE and weight: K-Points
   0.02197446  0.02197446  0.02602926       0.250
  -0.02197446  0.02197446  0.02602926       0.250
  -0.02197446 -0.02197446  0.02602926       0.250
   0.02197446 -0.02197446  0.02602926       0.250

 k-points in reciprocal lattice and weights: K-Points
   0.25000000  0.25000000  0.25000000       0.250
  -0.25000000  0.25000000  0.25000000       0.250
  -0.25000000 -0.25000000  0.25000000       0.250
   0.25000000 -0.25000000  0.25000000       0.250

 position of ions in fractional coordinates (direct lattice)
   0.16666667  0.16666667  0.50000000
   0.16666667  0.50000000  0.50000000
   0.16666667  0.83333331  0.50000000
   0.50000000  0.16666667  0.50000000
   0.50000000  0.50000000  0.50000000
   0.50000000  0.83333331  0.50000000
   0.83333331  0.16666667  0.50000000
   0.83333331  0.50000000  0.50000000
   0.83333331  0.83333331  0.50000000
   0.16666667  0.00000000  0.75000000
   0.16666667  0.33333334  0.75000000
   0.16666667  0.66666669  0.75000000
   0.50000000  0.00000000  0.75000000
   0.50000000  0.33333334  0.75000000
   0.50000000  0.66666669  0.75000000
   0.83333331  0.00000000  0.75000000
   0.83333331  0.33333334  0.75000000
   0.83333331  0.66666669  0.75000000
   0.00000000  0.00000000  0.00000000
   0.00000000  0.33333334  0.00000000
   0.00000000  0.66666669  0.00000000
   0.33333334  0.00000000  0.00000000
   0.33333334  0.33333334  0.00000000
   0.33333334  0.66666669  0.00000000
   0.66666669  0.00000000  0.00000000
   0.66666669  0.33333334  0.00000000
   0.66666669  0.66666669  0.00000000
   0.00000000  0.16666667  0.25000000
   0.00000000  0.50000000  0.25000000
   0.00000000  0.83333331  0.25000000
   0.33333334  0.16666667  0.25000000
   0.33333334  0.50000000  0.25000000
   0.33333334  0.83333331  0.25000000
   0.66666669  0.16666667  0.25000000
   0.66666669  0.50000000  0.25000000
   0.66666669  0.83333331  0.25000000
   0.00000000  0.16666667  0.45789860
   0.00000000  0.50000000  0.45789860
   0.00000000  0.83333331  0.45789860
   0.33333334  0.16666667  0.45789860
   0.33333334  0.50000000  0.45789860
   0.33333334  0.83333331  0.45789860
   0.66666669  0.16666667  0.45789860
   0.66666669  0.50000000  0.45789860
   0.66666669  0.83333331  0.45789860
   0.16666667  0.16666667  0.70789860
   0.16666667  0.50000000  0.70789860
   0.16666667  0.83333331  0.70789860
   0.50000000  0.16666667  0.70789860
   0.50000000  0.50000000  0.70789860
   0.50000000  0.83333331  0.70789860
   0.83333331  0.16666667  0.70789860
   0.83333331  0.50000000  0.70789860
   0.83333331  0.83333331  0.70789860
   0.16666667  0.00000000  0.54210140
   0.16666667  0.33333334  0.54210140
   0.16666667  0.66666669  0.54210140
   0.50000000  0.00000000  0.54210140
   0.50000000  0.33333334  0.54210140
   0.50000000  0.66666669  0.54210140
   0.83333331  0.00000000  0.54210140
   0.83333331  0.33333334  0.54210140
   0.83333331  0.66666669  0.54210140
   0.00000000  0.00000000  0.79210140
   0.00000000  0.33333334  0.79210140
   0.00000000  0.66666669  0.79210140
   0.33333334  0.00000000  0.79210140
   0.33333334  0.33333334  0.79210140
   0.33333334  0.66666669  0.79210140
   0.66666669  0.00000000  0.79210140
   0.66666669  0.33333334  0.79210140
   0.66666669  0.66666669  0.79210140
   0.16666667  0.00000000  0.95789860
   0.16666667  0.33333334  0.95789860
   0.16666667  0.66666669  0.95789860
   0.50000000  0.00000000  0.95789860
   0.50000000  0.33333334  0.95789860
   0.50000000  0.66666669  0.95789860
   0.83333331  0.00000000  0.95789860
   0.83333331  0.33333334  0.95789860
   0.83333331  0.66666669  0.95789860
   0.00000000  0.00000000  0.20789860
   0.00000000  0.33333334  0.20789860
   0.00000000  0.66666669  0.20789860
   0.33333334  0.00000000  0.20789860
   0.33333334  0.33333334  0.20789860
   0.33333334  0.66666669  0.20789860
   0.66666669  0.00000000  0.20789860
   0.66666669  0.33333334  0.20789860
   0.66666669  0.66666669  0.20789860
   0.00000000  0.16666667  0.04210140
   0.00000000  0.50000000  0.04210140
   0.00000000  0.83333331  0.04210140
   0.33333334  0.16666667  0.04210140
   0.33333334  0.50000000  0.04210140
   0.33333334  0.83333331  0.04210140
   0.66666669  0.16666667  0.04210140
   0.66666669  0.50000000  0.04210140
   0.66666669  0.83333331  0.04210140
   0.16666667  0.16666667  0.29210140
   0.16666667  0.50000000  0.29210140
   0.16666667  0.83333331  0.29210140
   0.50000000  0.16666667  0.29210140
   0.50000000  0.50000000  0.29210140
   0.50000000  0.83333331  0.29210140
   0.83333331  0.16666667  0.29210140
   0.83333331  0.50000000  0.29210140
   0.83333331  0.83333331  0.29210140

 position of ions in cartesian coordinates  (Angst):
   1.89614063  1.89614063  4.80228729
   1.89614063  5.68842171  4.80228729
   1.89614063  9.48070262  4.80228729
   5.68842171  1.89614063  4.80228729
   5.68842171  5.68842171  4.80228729
   5.68842171  9.48070262  4.80228729
   9.48070262  1.89614063  4.80228729
   9.48070262  5.68842171  4.80228729
   9.48070262  9.48070262  4.80228729
   1.89614063  0.00000000  7.20343093
   1.89614063  3.79228125  7.20343093
   1.89614063  7.58456251  7.20343093
   5.68842171  0.00000000  7.20343093
   5.68842171  3.79228125  7.20343093
   5.68842171  7.58456251  7.20343093
   9.48070262  0.00000000  7.20343093
   9.48070262  3.79228125  7.20343093
   9.48070262  7.58456251  7.20343093
   0.00000000  0.00000000  0.00000000
   0.00000000  3.79228125  0.00000000
   0.00000000  7.58456251  0.00000000
   3.79228125  0.00000000  0.00000000
   3.79228125  3.79228125  0.00000000
   3.79228125  7.58456251  0.00000000
   7.58456251  0.00000000  0.00000000
   7.58456251  3.79228125  0.00000000
   7.58456251  7.58456251  0.00000000
   0.00000000  1.89614063  2.40114364
   0.00000000  5.68842171  2.40114364
   0.00000000  9.48070262  2.40114364
   3.79228125  1.89614063  2.40114364
   3.79228125  5.68842171  2.40114364
   3.79228125  9.48070262  2.40114364
   7.58456251  1.89614063  2.40114364
   7.58456251  5.68842171  2.40114364
   7.58456251  9.48070262  2.40114364
   0.00000000  1.89614063  4.39792125
   0.00000000  5.68842171  4.39792125
   0.00000000  9.48070262  4.39792125
   3.79228125  1.89614063  4.39792125
   3.79228125  5.68842171  4.39792125
   3.79228125  9.48070262  4.39792125
   7.58456251  1.89614063  4.39792125
   7.58456251  5.68842171  4.39792125
   7.58456251  9.48070262  4.39792125
   1.89614063  1.89614063  6.79906489
   1.89614063  5.68842171  6.79906489
   1.89614063  9.48070262  6.79906489
   5.68842171  1.89614063  6.79906489
   5.68842171  5.68842171  6.79906489
   5.68842171  9.48070262  6.79906489
   9.48070262  1.89614063  6.79906489
   9.48070262  5.68842171  6.79906489
   9.48070262  9.48070262  6.79906489
   1.89614063  0.00000000  5.20665332
   1.89614063  3.79228125  5.20665332
   1.89614063  7.58456251  5.20665332
   5.68842171  0.00000000  5.20665332
   5.68842171  3.79228125  5.20665332
   5.68842171  7.58456251  5.20665332
   9.48070262  0.00000000  5.20665332
   9.48070262  3.79228125  5.20665332
   9.48070262  7.58456251  5.20665332
   0.00000000  0.00000000  7.60779697
   0.00000000  3.79228125  7.60779697
   0.00000000  7.58456251  7.60779697
   3.79228125  0.00000000  7.60779697
   3.79228125  3.79228125  7.60779697
   3.79228125  7.58456251  7.60779697
   7.58456251  0.00000000  7.60779697
   7.58456251  3.79228125  7.60779697
   7.58456251  7.58456251  7.60779697
   1.89614063  0.00000000  9.20020854
   1.89614063  3.79228125  9.20020854
   1.89614063  7.58456251  9.20020854
   5.68842171  0.00000000  9.20020854
   5.68842171  3.79228125  9.20020854
   5.68842171  7.58456251  9.20020854
   9.48070262  0.00000000  9.20020854
   9.48070262  3.79228125  9.20020854
   9.48070262  7.58456251  9.20020854
   0.00000000  0.00000000  1.99677761
   0.00000000  3.79228125  1.99677761
   0.00000000  7.58456251  1.99677761
   3.79228125  0.00000000  1.99677761
   3.79228125  3.79228125  1.99677761
   3.79228125  7.58456251  1.99677761
   7.58456251  0.00000000  1.99677761
   7.58456251  3.79228125  1.99677761
   7.58456251  7.58456251  1.99677761
   0.00000000  1.89614063  0.40436608
   0.00000000  5.68842171  0.40436608
   0.00000000  9.48070262  0.40436608
   3.79228125  1.89614063  0.40436608
   3.79228125  5.68842171  0.40436608
   3.79228125  9.48070262  0.40436608
   7.58456251  1.89614063  0.40436608
   7.58456251  5.68842171  0.40436608
   7.58456251  9.48070262  0.40436608
   1.89614063  1.89614063  2.80550968
   1.89614063  5.68842171  2.80550968
   1.89614063  9.48070262  2.80550968
   5.68842171  1.89614063  2.80550968
   5.68842171  5.68842171  2.80550968
   5.68842171  9.48070262  2.80550968
   9.48070262  1.89614063  2.80550968
   9.48070262  5.68842171  2.80550968
   9.48070262  9.48070262  2.80550968



--------------------------------------------------------------------------------------------------------


 k-point   1 :   0.2500 0.2500 0.2500  plane waves:   22590
 k-point   2 :  -0.2500 0.2500 0.2500  plane waves:   22590
 k-point   3 :  -0.2500-0.2500 0.2500  plane waves:   22590
 k-point   4 :   0.2500-0.2500 0.2500  plane waves:   22590

 maximum and minimum number of plane-waves per node :      2849     2801

 maximum number of plane-waves:     22590
 maximum index in each direction:
   IXMAX=   18   IYMAX=   18   IZMAX=   15
   IXMIN=  -18   IYMIN=  -18   IZMIN=  -15


 real space projection operators:
  total allocation   :      14421.69 KBytes
  max/ min on nodes  :       1806.66       1796.88


 parallel 3D FFT for wavefunctions:
    minimum data exchange during FFTs selected (reduces bandwidth)
 parallel 3D FFT for charge:
    minimum data exchange during FFTs selected (reduces bandwidth)


 total amount of memory used by VASP MPI-rank0    50546. kBytes
=======================================================================

   base      :      30000. kBytes
   nonlr-proj:       5524. kBytes
   fftplans  :       1304. kBytes
   grid      :       1981. kBytes
   one-center:        217. kBytes
   wavefun   :      11520. kBytes

     INWAV:  cpu time      0.0000: real time      0.0003
 Broyden mixing: mesh for mixing (old mesh)
   NGX = 37   NGY = 37   NGZ = 31
  (NGX  =112   NGY  =112   NGZ  = 96)
  gives a total of  42439 points

 initial charge density was supplied:
 charge density of overlapping atoms calculated
 number of electron     792.0000000 magnetization
 keeping initial charge density in first step


--------------------------------------------------------------------------------------------------------


 Maximum index for non-local projection operator          252
 Maximum index for augmentation-charges          337 (set IRDMAX)


--------------------------------------------------------------------------------------------------------


 First call to EWALD:  gamma=   0.165
 Maximum number of real-space cells 3x 3x 3
 Maximum number of reciprocal cells 3x 3x 3

    FEWALD:  cpu time      0.0036: real time      0.0046
    OFIELD:  cpu time      0.0001: real time      0.0007

  ML FORCE on cell =-STRESS in cart. coord. units (eV/cell)
  Direction    XX          YY          ZZ          XY          YZ          ZX
  --------------------------------------------------------------------------------------
  Total:      0.00000     0.00000     0.00000     0.00000     0.00000     0.00000
  in kB       0.00000     0.00000     0.00000     0.00000     0.00000     0.00000
  external pressure =        0.00 kB  Pullay stress =        0.00 kB

  kinetic pressure (ideal gas correction) =      0.00 kB
  total pressure  =      0.00 kB
  Total+kin.     0.000       0.000       0.000       0.000       0.000       0.000
  volume of cell :     1243.14
      direct lattice vectors                 reciprocal lattice vectors
    11.376843422  0.000000000  0.000000000     0.087897843  0.000000000  0.000000000
     0.000000000 11.376843422  0.000000000     0.000000000  0.087897843  0.000000000
     0.000000000  0.000000000  9.604574574     0.000000000  0.000000000  0.104117053

  length of vectors
    11.376843422 11.376843422  9.604574574     0.087897843  0.087897843  0.104117053


  POSITION                                       TOTAL-FORCE (eV/Angst) (ML)
 -----------------------------------------------------------------------------------
      1.89614      1.89614      4.80229         0.000000      0.000000      0.000000
      1.89614      5.68842      4.80229         0.000000      0.000000      0.000000
      1.89614      9.48070      4.80229         0.000000      0.000000      0.000000
      5.68842      1.89614      4.80229         0.000000      0.000000      0.000000
      5.68842      5.68842      4.80229         0.000000      0.000000      0.000000
      5.68842      9.48070      4.80229         0.000000      0.000000      0.000000
      9.48070      1.89614      4.80229         0.000000      0.000000      0.000000
      9.48070      5.68842      4.80229         0.000000      0.000000      0.000000
      9.48070      9.48070      4.80229         0.000000      0.000000      0.000000
      1.89614      0.00000      7.20343         0.000000      0.000000      0.000000
      1.89614      3.79228      7.20343         0.000000      0.000000      0.000000
      1.89614      7.58456      7.20343         0.000000      0.000000      0.000000
      5.68842      0.00000      7.20343         0.000000      0.000000      0.000000
      5.68842      3.79228      7.20343         0.000000      0.000000      0.000000
      5.68842      7.58456      7.20343         0.000000      0.000000      0.000000
      9.48070      0.00000      7.20343         0.000000      0.000000      0.000000
      9.48070      3.79228      7.20343         0.000000      0.000000      0.000000
      9.48070      7.58456      7.20343         0.000000      0.000000      0.000000
      0.00000      0.00000      0.00000         0.000000      0.000000      0.000000
      0.00000      3.79228      0.00000         0.000000      0.000000      0.000000
      0.00000      7.58456      0.00000         0.000000      0.000000      0.000000
      3.79228      0.00000      0.00000         0.000000      0.000000      0.000000
      3.79228      3.79228      0.00000         0.000000      0.000000      0.000000
      3.79228      7.58456      0.00000         0.000000      0.000000      0.000000
      7.58456      0.00000      0.00000         0.000000      0.000000      0.000000
      7.58456      3.79228      0.00000         0.000000      0.000000      0.000000
      7.58456      7.58456      0.00000         0.000000      0.000000      0.000000
      0.00000      1.89614      2.40114         0.000000      0.000000      0.000000
      0.00000      5.68842      2.40114         0.000000      0.000000      0.000000
      0.00000      9.48070      2.40114         0.000000      0.000000      0.000000
      3.79228      1.89614      2.40114         0.000000      0.000000      0.000000
      3.79228      5.68842      2.40114         0.000000      0.000000      0.000000
      3.79228      9.48070      2.40114         0.000000      0.000000      0.000000
      7.58456      1.89614      2.40114         0.000000      0.000000      0.000000
      7.58456      5.68842      2.40114         0.000000      0.000000      0.000000
      7.58456      9.48070      2.40114         0.000000      0.000000      0.000000
      0.00000      1.89614      4.39792         0.000000      0.000000      0.000000
      0.00000      5.68842      4.39792         0.000000      0.000000      0.000000
      0.00000      9.48070      4.39792         0.000000      0.000000      0.000000
      3.79228      1.89614      4.39792         0.000000      0.000000      0.000000
      3.79228      5.68842      4.39792         0.000000      0.000000      0.000000
      3.79228      9.48070      4.39792         0.000000      0.000000      0.000000
      7.58456      1.89614      4.39792         0.000000      0.000000      0.000000
      7.58456      5.68842      4.39792         0.000000      0.000000      0.000000
      7.58456      9.48070      4.39792         0.000000      0.000000      0.000000
      1.89614      1.89614      6.79906         0.000000      0.000000      0.000000
      1.89614      5.68842      6.79906         0.000000      0.000000      0.000000
      1.89614      9.48070      6.79906         0.000000      0.000000      0.000000
      5.68842      1.89614      6.79906         0.000000      0.000000      0.000000
      5.68842      5.68842      6.79906         0.000000      0.000000      0.000000
      5.68842      9.48070      6.79906         0.000000      0.000000      0.000000
      9.48070      1.89614      6.79906         0.000000      0.000000      0.000000
      9.48070      5.68842      6.79906         0.000000      0.000000      0.000000
      9.48070      9.48070      6.79906         0.000000      0.000000      0.000000
      1.89614      0.00000      5.20665         0.000000      0.000000      0.000000
      1.89614      3.79228      5.20665         0.000000      0.000000      0.000000
      1.89614      7.58456      5.20665         0.000000      0.000000      0.000000
      5.68842      0.00000      5.20665         0.000000      0.000000      0.000000
      5.68842      3.79228      5.20665         0.000000      0.000000      0.000000
      5.68842      7.58456      5.20665         0.000000      0.000000      0.000000
      9.48070      0.00000      5.20665         0.000000      0.000000      0.000000
      9.48070      3.79228      5.20665         0.000000      0.000000      0.000000
      9.48070      7.58456      5.20665         0.000000      0.000000      0.000000
      0.00000      0.00000      7.60780         0.000000      0.000000      0.000000
      0.00000      3.79228      7.60780         0.000000      0.000000      0.000000
      0.00000      7.58456      7.60780         0.000000      0.000000      0.000000
      3.79228      0.00000      7.60780         0.000000      0.000000      0.000000
      3.79228      3.79228      7.60780         0.000000      0.000000      0.000000
      3.79228      7.58456      7.60780         0.000000      0.000000      0.000000
      7.58456      0.00000      7.60780         0.000000      0.000000      0.000000
      7.58456      3.79228      7.60780         0.000000      0.000000      0.000000
      7.58456      7.58456      7.60780         0.000000      0.000000      0.000000
      1.89614      0.00000      9.20021         0.000000      0.000000      0.000000
      1.89614      3.79228      9.20021         0.000000      0.000000      0.000000
      1.89614      7.58456      9.20021         0.000000      0.000000      0.000000
      5.68842      0.00000      9.20021         0.000000      0.000000      0.000000
      5.68842      3.79228      9.20021         0.000000      0.000000      0.000000
      5.68842      7.58456      9.20021         0.000000      0.000000      0.000000
      9.48070      0.00000      9.20021         0.000000      0.000000      0.000000
      9.48070      3.79228      9.20021         0.000000      0.000000      0.000000
      9.48070      7.58456      9.20021         0.000000      0.000000      0.000000
      0.00000      0.00000      1.99678         0.000000      0.000000      0.000000
      0.00000      3.79228      1.99678         0.000000      0.000000      0.000000
      0.00000      7.58456      1.99678         0.000000      0.000000      0.000000
      3.79228      0.00000      1.99678         0.000000      0.000000      0.000000
      3.79228      3.79228      1.99678         0.000000      0.000000      0.000000
      3.79228      7.58456      1.99678         0.000000      0.000000      0.000000
      7.58456      0.00000      1.99678         0.000000      0.000000      0.000000
      7.58456      3.79228      1.99678         0.000000      0.000000      0.000000
      7.58456      7.58456      1.99678         0.000000      0.000000      0.000000
      0.00000      1.89614      0.40437         0.000000      0.000000      0.000000
      0.00000      5.68842      0.40437         0.000000      0.000000      0.000000
      0.00000      9.48070      0.40437         0.000000      0.000000      0.000000
      3.79228      1.89614      0.40437         0.000000      0.000000      0.000000
      3.79228      5.68842      0.40437         0.000000      0.000000      0.000000
      3.79228      9.48070      0.40437         0.000000      0.000000      0.000000
      7.58456      1.89614      0.40437         0.000000      0.000000      0.000000
      7.58456      5.68842      0.40437         0.000000      0.000000      0.000000
      7.58456      9.48070      0.40437         0.000000      0.000000      0.000000
      1.89614      1.89614      2.80551         0.000000      0.000000      0.000000
      1.89614      5.68842      2.80551         0.000000      0.000000      0.000000
      1.89614      9.48070      2.80551         0.000000      0.000000      0.000000
      5.68842      1.89614      2.80551         0.000000      0.000000      0.000000
      5.68842      5.68842      2.80551         0.000000      0.000000      0.000000
      5.68842      9.48070      2.80551         0.000000      0.000000      0.000000
      9.48070      1.89614      2.80551         0.000000      0.000000      0.000000
      9.48070      5.68842      2.80551         0.000000      0.000000      0.000000
      9.48070      9.48070      2.80551         0.000000      0.000000      0.000000
 -----------------------------------------------------------------------------------
    total drift:                                0.000000      0.000000      0.000000


--------------------------------------------------------------------------------------------------------



  ML FREE ENERGIE OF THE ION-ELECTRON SYSTEM (eV)
  ---------------------------------------------------
  free  energy ML TOTEN  =         0.00000000 eV

  ML energy  without entropy=        0.00000000  ML energy(sigma->0) =        0.00000000



--------------------------------------- Iteration      1(   1)  ---------------------------------------


    POTLOK:  cpu time      0.0155: real time      0.0226
    SETDIJ:  cpu time      0.0052: real time      0.0114
     EDDAV:  cpu time      5.9168: real time      6.1087
       DOS:  cpu time      0.0023: real time      0.0048
    --------------------------------------------
      LOOP:  cpu time      5.9399: real time      6.1477

 eigenvalue-minimisations  :  3864
 total energy-change (2. order) : 0.1152703E+05  (-0.3303438E+05)
 number of electron     792.0000000 magnetization
 augmentation part      792.0000000 magnetization

 Free energy of the ion-electron system (eV)
  ---------------------------------------------------
  alpha Z        PSCENC =      3563.47638822
  Ewald energy   TEWEN  =    -48589.53773391
  -Hartree energ DENC   =    -18840.34717089
  -exchange      EXHF   =         0.00000000
  -V(xc)+E(xc)   XCENC  =      3286.84850503
  PAW double counting   =     54431.09303398   -54537.79254336
  entropy T*S    EENTRO =        -0.15275246
  eigenvalues    EBANDS =      3557.04069480
  atomic energy  EATOM  =     68656.39924158
  Solvation  Ediel_sol  =         0.00000000
  ---------------------------------------------------
  free energy    TOTEN  =     11527.02766298 eV

  energy without entropy =    11527.18041544  energy(sigma->0) =    11527.10403921


--------------------------------------------------------------------------------------------------------




--------------------------------------- Iteration      1(   2)  ---------------------------------------


     EDDAV:  cpu time      5.9493: real time      6.0064
       DOS:  cpu time      0.0011: real time      0.0011
    --------------------------------------------
      LOOP:  cpu time      5.9503: real time      6.0074

 eigenvalue-minimisations  :  3840
 total energy-change (2. order) :-0.9993516E+04  (-0.9544074E+04)
 number of electron     792.0000000 magnetization
 augmentation part      792.0000000 magnetization

 Free energy of the ion-electron system (eV)
  ---------------------------------------------------
  alpha Z        PSCENC =      3563.47638822
  Ewald energy   TEWEN  =    -48589.53773391
  -Hartree energ DENC   =    -18840.34717089
  -exchange      EXHF   =         0.00000000
  -V(xc)+E(xc)   XCENC  =      3286.84850503
  PAW double counting   =     54431.09303398   -54537.79254336
  entropy T*S    EENTRO =        -0.29686348
  eigenvalues    EBANDS =     -6436.33126316
  atomic energy  EATOM  =     68656.39924158
  Solvation  Ediel_sol  =         0.00000000
  ---------------------------------------------------
  free energy    TOTEN  =      1533.51159402 eV

  energy without entropy =     1533.80845749  energy(sigma->0) =     1533.66002575


--------------------------------------------------------------------------------------------------------




--------------------------------------- Iteration      1(   3)  ---------------------------------------


     EDDAV:  cpu time      6.6407: real time      6.7027
       DOS:  cpu time      0.0008: real time      0.0008
    --------------------------------------------
      LOOP:  cpu time      6.6416: real time      6.7036

 eigenvalue-minimisations  :  4424
 total energy-change (2. order) :-0.2611634E+04  (-0.2539185E+04)
 number of electron     792.0000000 magnetization
 augmentation part      792.0000000 magnetization

 Free energy of the ion-electron system (eV)
  ---------------------------------------------------
  alpha Z        PSCENC =      3563.47638822
  Ewald energy   TEWEN  =    -48589.53773391
  -Hartree energ DENC   =    -18840.34717089
  -exchange      EXHF   =         0.00000000
  -V(xc)+E(xc)   XCENC  =      3286.84850503
  PAW double counting   =     54431.09303398   -54537.79254336
  entropy T*S    EENTRO =        -0.00000000
  eigenvalues    EBANDS =     -9048.26174747
  atomic energy  EATOM  =     68656.39924158
  Solvation  Ediel_sol  =         0.00000000
  ---------------------------------------------------
  free energy    TOTEN  =     -1078.12202682 eV

  energy without entropy =    -1078.12202682  energy(sigma->0) =    -1078.12202682


--------------------------------------------------------------------------------------------------------




--------------------------------------- Iteration      1(   4)  ---------------------------------------


     EDDAV:  cpu time      7.3784: real time      7.4471
       DOS:  cpu time      0.0008: real time      0.0008
    --------------------------------------------
      LOOP:  cpu time      7.3792: real time      7.4479

 eigenvalue-minimisations  :  5080
 total energy-change (2. order) :-0.1954390E+03  (-0.1943256E+03)
 number of electron     792.0000000 magnetization
 augmentation part      792.0000000 magnetization

 Free energy of the ion-electron system (eV)
  ---------------------------------------------------
  alpha Z        PSCENC =      3563.47638822
  Ewald energy   TEWEN  =    -48589.53773391
  -Hartree energ DENC   =    -18840.34717089
  -exchange      EXHF   =         0.00000000
  -V(xc)+E(xc)   XCENC  =      3286.84850503
  PAW double counting   =     54431.09303398   -54537.79254336
  entropy T*S    EENTRO =        -0.00000000
  eigenvalues    EBANDS =     -9243.70078234
  atomic energy  EATOM  =     68656.39924158
  Solvation  Ediel_sol  =         0.00000000
  ---------------------------------------------------
  free energy    TOTEN  =     -1273.56106169 eV

  energy without entropy =    -1273.56106169  energy(sigma->0) =    -1273.56106169


--------------------------------------------------------------------------------------------------------




--------------------------------------- Iteration      1(   5)  ---------------------------------------


     EDDAV:  cpu time      7.3422: real time      7.4179
       DOS:  cpu time      0.0008: real time      0.0008
    CHARGE:  cpu time      0.0624: real time      0.0668
    MIXING:  cpu time      0.0016: real time      0.0050
    --------------------------------------------
      LOOP:  cpu time      7.4070: real time      7.4905

 eigenvalue-minimisations  :  5040
 total energy-change (2. order) :-0.5192593E+01  (-0.5181490E+01)
 number of electron     792.0003053 magnetization
 augmentation part      202.2321048 magnetization

 Broyden mixing:
  rms(total) = 0.17234E+02    rms(broyden)= 0.17232E+02
  rms(prec ) = 0.19171E+02
  weight for this iteration     100.00

 Free energy of the ion-electron system (eV)
  ---------------------------------------------------
  alpha Z        PSCENC =      3563.47638822
  Ewald energy   TEWEN  =    -48589.53773391
  -Hartree energ DENC   =    -18840.34717089
  -exchange      EXHF   =         0.00000000
  -V(xc)+E(xc)   XCENC  =      3286.84850503
  PAW double counting   =     54431.09303398   -54537.79254336
  entropy T*S    EENTRO =        -0.00000000
  eigenvalues    EBANDS =     -9248.89337511
  atomic energy  EATOM  =     68656.39924158
  Solvation  Ediel_sol  =         0.00000000
  ---------------------------------------------------
  free energy    TOTEN  =     -1278.75365447 eV

  energy without entropy =    -1278.75365447  energy(sigma->0) =    -1278.75365447


--------------------------------------------------------------------------------------------------------




--------------------------------------- Iteration      1(   6)  ---------------------------------------


    POTLOK:  cpu time      0.0111: real time      0.0118
    SETDIJ:  cpu time      0.0038: real time      0.0040
     EDDAV:  cpu time      7.3531: real time      7.4223
       DOS:  cpu time      0.0010: real time      0.0010
    CHARGE:  cpu time      0.0652: real time      0.0661
    MIXING:  cpu time      0.0016: real time      0.0063
    --------------------------------------------
      LOOP:  cpu time      7.4357: real time      7.5116

 eigenvalue-minimisations  :  5072
 total energy-change (2. order) : 0.3022485E+03  (-0.1950008E+03)
 number of electron     792.0002462 magnetization
 augmentation part      214.2289640 magnetization

 Broyden mixing:
  rms(total) = 0.52812E+01    rms(broyden)= 0.52763E+01
  rms(prec ) = 0.58150E+01
  weight for this iteration     100.00

 eigenvalues of (default mixing * dielectric matrix)
  average eigenvalue GAMMA=   0.9632
  0.9632

 Free energy of the ion-electron system (eV)
  ---------------------------------------------------
  alpha Z        PSCENC =      3563.47638822
  Ewald energy   TEWEN  =    -48589.53773391
  -Hartree energ DENC   =    -19064.90865051
  -exchange      EXHF   =         0.00000000
  -V(xc)+E(xc)   XCENC  =      3337.84245417
  PAW double counting   =     68242.87038252   -68475.14033439
  entropy T*S    EENTRO =        -0.00000000
  eigenvalues    EBANDS =     -8647.50690207
  atomic energy  EATOM  =     68656.39924158
  Solvation  Ediel_sol  =         0.00000000
  ---------------------------------------------------
  free energy    TOTEN  =      -976.50515439 eV

  energy without entropy =     -976.50515439  energy(sigma->0) =     -976.50515439


--------------------------------------------------------------------------------------------------------




--------------------------------------- Iteration      1(   7)  ---------------------------------------


    POTLOK:  cpu time      0.0121: real time      0.0128
    SETDIJ:  cpu time      0.0037: real time      0.0038
     EDDAV:  cpu time      7.7437: real time      7.8145
       DOS:  cpu time      0.0006: real time      0.0006
    CHARGE:  cpu time      0.0624: real time      0.0629
    MIXING:  cpu time      0.0007: real time      0.0019
    --------------------------------------------
      LOOP:  cpu time      7.8233: real time      7.8964

 eigenvalue-minimisations  :  5392
 total energy-change (2. order) : 0.4258395E+01  (-0.2822267E+02)
 number of electron     792.0002652 magnetization
 augmentation part      207.2784225 magnetization

 Broyden mixing:
  rms(total) = 0.46193E+01    rms(broyden)= 0.46191E+01
  rms(prec ) = 0.48156E+01
  weight for this iteration     100.00

 eigenvalues of (default mixing * dielectric matrix)
  average eigenvalue GAMMA=   1.8588
  0.7359  2.9817

 Free energy of the ion-electron system (eV)
  ---------------------------------------------------
  alpha Z        PSCENC =      3563.47638822
  Ewald energy   TEWEN  =    -48589.53773391
  -Hartree energ DENC   =    -18909.84323142
  -exchange      EXHF   =         0.00000000
  -V(xc)+E(xc)   XCENC  =      3318.69904768
  PAW double counting   =     75209.54337372   -75452.71100415
  entropy T*S    EENTRO =        -0.00000000
  eigenvalues    EBANDS =     -8768.27284063
  atomic energy  EATOM  =     68656.39924158
  Solvation  Ediel_sol  =         0.00000000
  ---------------------------------------------------
  free energy    TOTEN  =      -972.24675890 eV

  energy without entropy =     -972.24675890  energy(sigma->0) =     -972.24675890


--------------------------------------------------------------------------------------------------------




--------------------------------------- Iteration      1(   8)  ---------------------------------------


    POTLOK:  cpu time      0.0109: real time      0.0117
    SETDIJ:  cpu time      0.0037: real time      0.0037
     EDDAV:  cpu time      7.2985: real time      7.3650
       DOS:  cpu time      0.0027: real time      0.0027
    CHARGE:  cpu time      0.0616: real time      0.0620
    MIXING:  cpu time      0.0005: real time      0.0005
    --------------------------------------------
      LOOP:  cpu time      7.3778: real time      7.4456

 eigenvalue-minimisations  :  5016
 total energy-change (2. order) :-0.3898551E+00  (-0.1128646E+02)
 number of electron     792.0002584 magnetization
 augmentation part      215.7566285 magnetization

 Broyden mixing:
  rms(total) = 0.34628E+01    rms(broyden)= 0.34627E+01
  rms(prec ) = 0.37769E+01
  weight for this iteration     100.00

 eigenvalues of (default mixing * dielectric matrix)
  average eigenvalue GAMMA=   1.2355
  2.1789  0.9310  0.5967

 Free energy of the ion-electron system (eV)
  ---------------------------------------------------
  alpha Z        PSCENC =      3563.47638822
  Ewald energy   TEWEN  =    -48589.53773391
  -Hartree energ DENC   =    -18526.33358705
  -exchange      EXHF   =         0.00000000
  -V(xc)+E(xc)   XCENC  =      3303.73071784
  PAW double counting   =     93981.09746769   -94297.54421841
  entropy T*S    EENTRO =        -0.00000000
  eigenvalues    EBANDS =     -9063.92488999
  atomic energy  EATOM  =     68656.39924158
  Solvation  Ediel_sol  =         0.00000000
  ---------------------------------------------------
  free energy    TOTEN  =      -972.63661403 eV

  energy without entropy =     -972.63661403  energy(sigma->0) =     -972.63661403


--------------------------------------------------------------------------------------------------------




--------------------------------------- Iteration      1(   9)  ---------------------------------------


    POTLOK:  cpu time      0.0110: real time      0.0119
    SETDIJ:  cpu time      0.0039: real time      0.0039
     EDDAV:  cpu time      7.3725: real time      7.4387
       DOS:  cpu time      0.0011: real time      0.0011
    CHARGE:  cpu time      0.0619: real time      0.0624
    MIXING:  cpu time      0.0007: real time      0.0013
    --------------------------------------------
      LOOP:  cpu time      7.4512: real time      7.5193

 eigenvalue-minimisations  :  5056
 total energy-change (2. order) : 0.5988113E+01  (-0.3622361E+01)
 number of electron     792.0002633 magnetization
 augmentation part      211.4424548 magnetization

 Broyden mixing:
  rms(total) = 0.24134E+00    rms(broyden)= 0.24051E+00
  rms(prec ) = 0.26542E+00
  weight for this iteration     100.00

 eigenvalues of (default mixing * dielectric matrix)
  average eigenvalue GAMMA=   1.3587
  2.2899  1.4406  1.0892  0.6152

 Free energy of the ion-electron system (eV)
  ---------------------------------------------------
  alpha Z        PSCENC =      3563.47638822
  Ewald energy   TEWEN  =    -48589.53773391
  -Hartree energ DENC   =    -18675.09907616
  -exchange      EXHF   =         0.00000000
  -V(xc)+E(xc)   XCENC  =      3308.71220308
  PAW double counting   =     88576.17011619   -88872.65926979
  entropy T*S    EENTRO =        -0.00000000
  eigenvalues    EBANDS =     -8934.11037048
  atomic energy  EATOM  =     68656.39924158
  Solvation  Ediel_sol  =         0.00000000
  ---------------------------------------------------
  free energy    TOTEN  =      -966.64850126 eV

  energy without entropy =     -966.64850126  energy(sigma->0) =     -966.64850126


--------------------------------------------------------------------------------------------------------




--------------------------------------- Iteration      1(  10)  ---------------------------------------


    POTLOK:  cpu time      0.0110: real time      0.0120
    SETDIJ:  cpu time      0.0037: real time      0.0038
     EDDAV:  cpu time      7.5352: real time      7.6041
       DOS:  cpu time      0.0008: real time      0.0009
    CHARGE:  cpu time      0.0619: real time      0.0623
    MIXING:  cpu time      0.0006: real time      0.0010
    --------------------------------------------
      LOOP:  cpu time      7.6134: real time      7.6841

 eigenvalue-minimisations  :  5224
 total energy-change (2. order) :-0.1072431E+00  (-0.1308963E+00)
 number of electron     792.0002619 magnetization
 augmentation part      211.6663432 magnetization

 Broyden mixing:
  rms(total) = 0.29865E+00    rms(broyden)= 0.29862E+00
  rms(prec ) = 0.34579E+00
  weight for this iteration     100.00

 eigenvalues of (default mixing * dielectric matrix)
  average eigenvalue GAMMA=   1.3789
  2.5353  1.8506  0.9560  0.9560  0.5964

 Free energy of the ion-electron system (eV)
  ---------------------------------------------------
  alpha Z        PSCENC =      3563.47638822
  Ewald energy   TEWEN  =    -48589.53773391
  -Hartree energ DENC   =    -18722.17419920
  -exchange      EXHF   =         0.00000000
  -V(xc)+E(xc)   XCENC  =      3312.26105398
  PAW double counting   =     89054.93122507   -89356.78902867
  entropy T*S    EENTRO =        -0.00000000
  eigenvalues    EBANDS =     -8885.32269142
  atomic energy  EATOM  =     68656.39924158
  Solvation  Ediel_sol  =         0.00000000
  ---------------------------------------------------
  free energy    TOTEN  =      -966.75574435 eV

  energy without entropy =     -966.75574435  energy(sigma->0) =     -966.75574435


--------------------------------------------------------------------------------------------------------




--------------------------------------- Iteration      1(  11)  ---------------------------------------


    POTLOK:  cpu time      0.0111: real time      0.0120
    SETDIJ:  cpu time      0.0036: real time      0.0037
     EDDAV:  cpu time      7.6746: real time      7.7465
       DOS:  cpu time      0.0007: real time      0.0007
    CHARGE:  cpu time      0.0623: real time      0.0631
    MIXING:  cpu time      0.0006: real time      0.0006
    --------------------------------------------
      LOOP:  cpu time      7.7530: real time      7.8267

 eigenvalue-minimisations  :  5344
 total energy-change (2. order) : 0.6981749E-01  (-0.3851247E-01)
 number of electron     792.0002625 magnetization
 augmentation part      211.2790627 magnetization

 Broyden mixing:
  rms(total) = 0.49248E-01    rms(broyden)= 0.49177E-01
  rms(prec ) = 0.59797E-01
  weight for this iteration     100.00

 eigenvalues of (default mixing * dielectric matrix)
  average eigenvalue GAMMA=   1.2876
  2.5562  1.5528  1.3523  1.0515  0.5776  0.6351

 Free energy of the ion-electron system (eV)
  ---------------------------------------------------
  alpha Z        PSCENC =      3563.47638822
  Ewald energy   TEWEN  =    -48589.53773391
  -Hartree energ DENC   =    -18737.58187682
  -exchange      EXHF   =         0.00000000
  -V(xc)+E(xc)   XCENC  =      3312.83641740
  PAW double counting   =     89193.38135966   -89495.84276722
  entropy T*S    EENTRO =        -0.00000000
  eigenvalues    EBANDS =     -8869.81695577
  atomic energy  EATOM  =     68656.39924158
  Solvation  Ediel_sol  =         0.00000000
  ---------------------------------------------------
  free energy    TOTEN  =      -966.68592686 eV

  energy without entropy =     -966.68592686  energy(sigma->0) =     -966.68592686


--------------------------------------------------------------------------------------------------------




--------------------------------------- Iteration      1(  12)  ---------------------------------------


    POTLOK:  cpu time      0.0109: real time      0.0118
    SETDIJ:  cpu time      0.0037: real time      0.0037
     EDDAV:  cpu time      7.6790: real time      7.7495
       DOS:  cpu time      0.0007: real time      0.0007
    CHARGE:  cpu time      0.0623: real time      0.0627
    MIXING:  cpu time      0.0007: real time      0.0007
    --------------------------------------------
      LOOP:  cpu time      7.7573: real time      7.8292

 eigenvalue-minimisations  :  5392
 total energy-change (2. order) :-0.2035849E-02  (-0.7199458E-02)
 number of electron     792.0002627 magnetization
 augmentation part      211.1971563 magnetization

 Broyden mixing:
  rms(total) = 0.43908E-01    rms(broyden)= 0.43856E-01
  rms(prec ) = 0.52029E-01
  weight for this iteration     100.00

 eigenvalues of (default mixing * dielectric matrix)
  average eigenvalue GAMMA=   1.2645
  2.5847  1.7258  1.7258  0.9561  0.7599  0.5822  0.5166

 Free energy of the ion-electron system (eV)
  ---------------------------------------------------
  alpha Z        PSCENC =      3563.47638822
  Ewald energy   TEWEN  =    -48589.53773391
  -Hartree energ DENC   =    -18734.95667075
  -exchange      EXHF   =         0.00000000
  -V(xc)+E(xc)   XCENC  =      3312.53689126
  PAW double counting   =     89237.13145817   -89539.15608034
  entropy T*S    EENTRO =        -0.00000000
  eigenvalues    EBANDS =     -8872.58145694
  atomic energy  EATOM  =     68656.39924158
  Solvation  Ediel_sol  =         0.00000000
  ---------------------------------------------------
  free energy    TOTEN  =      -966.68796271 eV

  energy without entropy =     -966.68796271  energy(sigma->0) =     -966.68796271


--------------------------------------------------------------------------------------------------------




--------------------------------------- Iteration      1(  13)  ---------------------------------------


    POTLOK:  cpu time      0.0116: real time      0.0126
    SETDIJ:  cpu time      0.0036: real time      0.0036
     EDDAV:  cpu time      6.5372: real time      6.5971
       DOS:  cpu time      0.0007: real time      0.0008
    --------------------------------------------
      LOOP:  cpu time      6.5531: real time      6.6140

 eigenvalue-minimisations  :  4352
 total energy-change (2. order) : 0.9301487E-03  (-0.7493435E-03)
 number of electron     792.0002627 magnetization
 augmentation part      211.1971563 magnetization

 Free energy of the ion-electron system (eV)
  ---------------------------------------------------
  alpha Z        PSCENC =      3563.47638822
  Ewald energy   TEWEN  =    -48589.53773391
  -Hartree energ DENC   =    -18735.61799004
  -exchange      EXHF   =         0.00000000
  -V(xc)+E(xc)   XCENC  =      3312.60105490
  PAW double counting   =     89253.30087917   -89555.18901270
  entropy T*S    EENTRO =        -0.00000000
  eigenvalues    EBANDS =     -8872.11985977
  atomic energy  EATOM  =     68656.39924158
  Solvation  Ediel_sol  =         0.00000000
  ---------------------------------------------------
  free energy    TOTEN  =      -966.68703256 eV

  energy without entropy =     -966.68703256  energy(sigma->0) =     -966.68703256


--------------------------------------------------------------------------------------------------------


 <<removed irrelevant content>>


 POSITION                                       TOTAL-FORCE (eV/Angst)
 -----------------------------------------------------------------------------------
      1.89614      1.89614      4.80229         0.001070      0.002603     -0.000057
      1.89614      5.68842      4.80229         0.003063      0.000878     -0.000217
      1.89614      9.48070      4.80229         0.002553     -0.003762      0.001577
      5.68842      1.89614      4.80229         0.000735      0.004944     -0.001022
      5.68842      5.68842      4.80229        -0.000543     -0.001434     -0.001515
      5.68842      9.48070      4.80229        -0.000327     -0.003449     -0.001268
      9.48070      1.89614      4.80229        -0.001963      0.002343     -0.001572
      9.48070      5.68842      4.80229        -0.002452      0.000821     -0.000741
      9.48070      9.48070      4.80229        -0.002212     -0.002982     -0.000825
      1.89614      0.00000      7.20343         0.001945     -0.001515     -0.000263
      1.89614      3.79228      7.20343         0.003302     -0.003706     -0.000220
      1.89614      7.58456      7.20343         0.004670      0.005367     -0.001827
      5.68842      0.00000      7.20343         0.001034      0.000642      0.002547
      5.68842      3.79228      7.20343         0.000951     -0.003971     -0.000057
      5.68842      7.58456      7.20343        -0.000447      0.003238      0.002939
      9.48070      0.00000      7.20343        -0.003205     -0.000382      0.001481
      9.48070      3.79228      7.20343        -0.004378     -0.002725      0.000871
      9.48070      7.58456      7.20343        -0.004010      0.002998     -0.000650
      0.00000      0.00000      0.00000        -0.001464     -0.001149     -0.001242
      0.00000      3.79228      0.00000        -0.000672     -0.001983     -0.000638
      0.00000      7.58456      0.00000        -0.000312      0.003501      0.000884
      3.79228      0.00000      0.00000        -0.001899      0.000342      0.001295
      3.79228      3.79228      0.00000        -0.002359     -0.002940     -0.000965
      3.79228      7.58456      0.00000        -0.000663      0.002764     -0.002122
      7.58456      0.00000      0.00000         0.003182      0.000468      0.000250
      7.58456      3.79228      0.00000         0.003156     -0.002589     -0.000461
      7.58456      7.58456      0.00000         0.001028      0.002046     -0.002585
      0.00000      1.89614      2.40114        -0.000499      0.003033      0.001673
      0.00000      5.68842      2.40114        -0.000652      0.001611      0.000709
      0.00000      9.48070      2.40114        -0.000359     -0.004772     -0.000184
      3.79228      1.89614      2.40114        -0.002002      0.001946     -0.001011
      3.79228      5.68842      2.40114        -0.001916      0.000684      0.000963
      3.79228      9.48070      2.40114        -0.002662     -0.002477      0.000328
      7.58456      1.89614      2.40114         0.002406      0.002850     -0.000090
      7.58456      5.68842      2.40114         0.002604     -0.001553      0.000171
      7.58456      9.48070      2.40114         0.002995     -0.001120      0.000467
      0.00000      1.89614      4.39792        -0.000461      0.009231      0.001983
      0.00000      5.68842      4.39792         0.000375     -0.000305      0.003305
      0.00000      9.48070      4.39792        -0.000457     -0.008988      0.000981
      3.79228      1.89614      4.39792        -0.009883      0.006068      0.000685
      3.79228      5.68842      4.39792        -0.013960     -0.000035      0.003078
[...]
   -.234E+00 -.461E-01 -.847E+02   0.227E+00 0.273E-01 0.916E+02   -.104E-01 0.372E-02 -.688E+01   0.132E-01 0.931E-02 -.318E-02
   0.237E+00 0.464E-01 -.847E+02   -.230E+00 -.275E-01 0.916E+02   0.103E-01 -.372E-02 -.688E+01   -.132E-01 -.935E-02 -.317E-02
   0.281E+00 -.618E-03 -.847E+02   -.275E+00 0.722E-03 0.916E+02   0.156E-01 -.689E-04 -.688E+01   -.147E-01 -.341E-04 -.465E-02
   0.236E+00 -.458E-01 -.847E+02   -.228E+00 0.268E-01 0.916E+02   0.104E-01 0.379E-02 -.688E+01   -.132E-01 0.939E-02 -.320E-02
   0.453E-01 0.237E+00 -.847E+02   -.262E-01 -.230E+00 0.916E+02   -.382E-02 0.104E-01 -.688E+01   -.940E-02 -.132E-01 -.323E-02
   0.436E-01 -.248E-02 -.847E+02   -.193E-01 0.250E-02 0.916E+02   -.281E-02 -.451E-04 -.689E+01   -.125E-01 0.119E-03 -.275E-02
   0.463E-01 -.235E+00 -.847E+02   -.274E-01 0.228E+00 0.916E+02   -.374E-02 -.104E-01 -.688E+01   -.935E-02 0.130E-01 -.335E-02
   0.946E-03 0.282E+00 -.847E+02   -.110E-02 -.276E+00 0.916E+02   0.934E-04 0.157E-01 -.688E+01   0.676E-04 -.147E-01 -.461E-02
   -.487E-04 -.890E-04 -.847E+02   0.231E-04 0.951E-04 0.916E+02   0.128E-04 -.143E-04 -.689E+01   0.156E-04 0.421E-05 -.170E-02
   0.394E-03 -.282E+00 -.847E+02   -.399E-03 0.276E+00 0.916E+02   0.213E-04 -.156E-01 -.688E+01   -.139E-04 0.147E-01 -.450E-02
   -.463E-01 0.237E+00 -.847E+02   0.275E-01 -.230E+00 0.916E+02   0.372E-02 0.103E-01 -.688E+01   0.932E-02 -.132E-01 -.309E-02
   -.436E-01 0.612E-03 -.847E+02   0.193E-01 -.651E-03 0.916E+02   0.280E-02 -.303E-05 -.689E+01   0.125E-01 0.275E-04 -.272E-02
   -.468E-01 -.238E+00 -.847E+02   0.279E-01 0.231E+00 0.916E+02   0.371E-02 -.104E-01 -.688E+01   0.935E-02 0.131E-01 -.317E-02
   0.419E-01 0.117E-02 0.847E+02   -.173E-01 -.109E-02 -.916E+02   -.300E-02 -.125E-04 0.689E+01   -.126E-01 -.123E-03 0.280E-02
   0.456E-01 -.237E+00 0.847E+02   -.266E-01 0.230E+00 -.916E+02   -.381E-02 -.105E-01 0.688E+01   -.940E-02 0.133E-01 0.316E-02
   0.465E-01 0.236E+00 0.847E+02   -.276E-01 -.229E+00 -.916E+02   -.371E-02 0.105E-01 0.688E+01   -.934E-02 -.131E-01 0.324E-02
   0.544E-03 -.611E-03 0.847E+02   -.645E-03 0.739E-03 -.916E+02   0.665E-04 -.760E-05 0.689E+01   0.393E-04 -.840E-04 0.180E-02
   0.393E-03 -.283E+00 0.847E+02   -.470E-03 0.277E+00 -.916E+02   0.391E-04 -.157E-01 0.688E+01   0.384E-04 0.148E-01 0.463E-02
   -.182E-03 0.284E+00 0.847E+02   0.279E-03 -.278E+00 -.916E+02   -.481E-04 0.157E-01 0.688E+01   -.503E-04 -.147E-01 0.452E-02
   -.425E-01 0.187E-02 0.847E+02   0.179E-01 -.191E-02 -.916E+02   0.294E-02 0.236E-04 0.689E+01   0.126E-01 -.562E-04 0.273E-02
   -.461E-01 -.239E+00 0.847E+02   0.271E-01 0.232E+00 -.916E+02   0.378E-02 -.104E-01 0.688E+01   0.936E-02 0.133E-01 0.315E-02
   -.464E-01 0.238E+00 0.847E+02   0.274E-01 -.231E+00 -.916E+02   0.376E-02 0.104E-01 0.688E+01   0.940E-02 -.132E-01 0.317E-02
   0.228E-03 -.797E-03 0.847E+02   -.268E-03 0.102E-02 -.916E+02   -.562E-04 -.102E-03 0.689E+01   0.497E-04 -.114E-03 0.172E-02
   0.890E-04 -.427E-01 0.847E+02   -.767E-04 0.182E-01 -.916E+02   -.188E-04 0.288E-02 0.689E+01   -.140E-04 0.126E-01 0.268E-02
   -.325E-02 0.436E-01 0.847E+02   0.334E-02 -.193E-01 -.916E+02   -.831E-04 -.279E-02 0.689E+01   0.892E-04 -.125E-01 0.258E-02
   -.282E+00 -.634E-04 0.847E+02   0.276E+00 0.120E-03 -.916E+02   -.155E-01 -.769E-05 0.688E+01   0.148E-01 -.521E-04 0.460E-02
   -.237E+00 -.467E-01 0.847E+02   0.230E+00 0.279E-01 -.916E+02   -.104E-01 0.365E-02 0.688E+01   0.132E-01 0.934E-02 0.317E-02
   -.235E+00 0.469E-01 0.847E+02   0.228E+00 -.281E-01 -.916E+02   -.103E-01 -.364E-02 0.688E+01   0.131E-01 -.928E-02 0.326E-02
   0.281E+00 0.803E-04 0.847E+02   -.276E+00 -.104E-03 -.916E+02   0.156E-01 0.213E-04 0.688E+01   -.148E-01 0.266E-05 0.467E-02
   0.237E+00 -.462E-01 0.847E+02   -.230E+00 0.272E-01 -.916E+02   0.104E-01 0.373E-02 0.688E+01   -.132E-01 0.938E-02 0.322E-02
   0.238E+00 0.461E-01 0.847E+02   -.231E+00 -.271E-01 -.916E+02   0.104E-01 -.377E-02 0.688E+01   -.132E-01 -.939E-02 0.330E-02
   0.280E+00 -.518E-03 -.847E+02   -.274E+00 0.695E-03 0.916E+02   0.156E-01 -.690E-04 -.688E+01   -.146E-01 -.106E-03 -.471E-02
   0.237E+00 -.462E-01 -.847E+02   -.230E+00 0.271E-01 0.916E+02   0.104E-01 0.378E-02 -.688E+01   -.131E-01 0.944E-02 -.326E-02
   0.237E+00 0.468E-01 -.847E+02   -.230E+00 -.279E-01 0.916E+02   0.104E-01 -.370E-02 -.688E+01   -.132E-01 -.933E-02 -.320E-02
   0.248E-02 0.516E-03 -.847E+02   -.248E-02 -.549E-03 0.916E+02   0.317E-04 0.435E-04 -.689E+01   -.880E-04 -.986E-05 -.194E-02
   -.237E-03 -.430E-01 -.847E+02   0.232E-03 0.185E-01 0.916E+02   0.377E-04 0.287E-02 -.689E+01   0.387E-05 0.126E-01 -.275E-02
   0.806E-04 0.425E-01 -.847E+02   0.788E-06 -.180E-01 0.916E+02   -.227E-04 -.292E-02 -.689E+01   -.480E-04 -.126E-01 -.291E-02
   -.282E+00 -.423E-03 -.847E+02   0.277E+00 0.507E-03 0.916E+02   -.156E-01 -.316E-04 -.688E+01   0.147E-01 -.485E-04 -.484E-02
   -.237E+00 -.455E-01 -.847E+02   0.230E+00 0.264E-01 0.916E+02   -.105E-01 0.382E-02 -.688E+01   0.131E-01 0.944E-02 -.331E-02
   -.237E+00 0.459E-01 -.847E+02   0.230E+00 -.269E-01 0.916E+02   -.104E-01 -.379E-02 -.688E+01   0.132E-01 -.939E-02 -.322E-02
   -.997E-03 0.825E-03 -.847E+02   0.110E-02 -.799E-03 0.916E+02   -.681E-04 0.296E-04 -.689E+01   -.407E-04 -.878E-04 -.169E-02
   -.647E-03 -.283E+00 -.847E+02   0.765E-03 0.278E+00 0.916E+02   -.571E-04 -.156E-01 -.688E+01   -.609E-04 0.148E-01 -.452E-02
   -.673E-03 0.283E+00 -.847E+02   0.769E-03 -.277E+00 0.916E+02   -.582E-04 0.156E-01 -.688E+01   -.362E-04 -.147E-01 -.465E-02
   -.417E-01 0.144E-02 -.847E+02   0.171E-01 -.144E-02 0.916E+02   0.298E-02 0.401E-04 -.689E+01   0.127E-01 -.803E-04 -.272E-02
   -.452E-01 -.239E+00 -.847E+02   0.260E-01 0.232E+00 0.916E+02   0.384E-02 -.104E-01 -.688E+01   0.948E-02 0.133E-01 -.309E-02
   -.446E-01 0.238E+00 -.847E+02   0.254E-01 -.231E+00 0.916E+02   0.388E-02 0.103E-01 -.688E+01   0.946E-02 -.132E-01 -.308E-02
   0.427E-01 0.959E-03 -.847E+02   -.182E-01 -.877E-03 0.916E+02   -.292E-02 -.146E-04 -.689E+01   -.126E-01 -.914E-04 -.263E-02
   0.459E-01 -.236E+00 -.847E+02   -.268E-01 0.229E+00 0.916E+02   -.379E-02 -.103E-01 -.688E+01   -.943E-02 0.133E-01 -.312E-02
   0.453E-01 0.235E+00 -.847E+02   -.262E-01 -.228E+00 0.916E+02   -.381E-02 0.103E-01 -.688E+01   -.942E-02 -.132E-01 -.307E-02
   -.874E-03 0.282E+00 0.847E+02   0.106E-02 -.276E+00 -.916E+02   -.102E-03 0.156E-01 0.688E+01   -.905E-04 -.147E-01 0.448E-02
   -.859E-03 -.112E-02 0.847E+02   0.972E-03 0.111E-02 -.916E+02   -.591E-04 -.590E-05 0.689E+01   -.529E-04 0.665E-04 0.187E-02
   -.976E-03 -.281E+00 0.847E+02   0.110E-02 0.276E+00 -.916E+02   -.865E-04 -.156E-01 0.688E+01   -.435E-04 0.147E-01 0.463E-02
   -.453E-01 0.239E+00 0.847E+02   0.261E-01 -.231E+00 -.916E+02   0.385E-02 0.103E-01 0.688E+01   0.950E-02 -.133E-01 0.308E-02
   -.412E-01 -.109E-04 0.847E+02   0.165E-01 -.959E-04 -.916E+02   0.303E-02 0.437E-04 0.689E+01   0.127E-01 0.759E-04 0.265E-02
   -.445E-01 -.239E+00 0.847E+02   0.253E-01 0.232E+00 -.916E+02   0.393E-02 -.104E-01 0.688E+01   0.951E-02 0.132E-01 0.308E-02
   0.462E-01 0.236E+00 0.847E+02   -.272E-01 -.229E+00 -.916E+02   -.375E-02 0.104E-01 0.688E+01   -.941E-02 -.132E-01 0.304E-02
   0.421E-01 0.500E-03 0.847E+02   -.175E-01 -.473E-03 -.916E+02   -.297E-02 -.432E-04 0.689E+01   -.126E-01 -.193E-04 0.261E-02
   0.456E-01 -.236E+00 0.847E+02   -.264E-01 0.229E+00 -.916E+02   -.384E-02 -.103E-01 0.688E+01   -.946E-02 0.132E-01 0.306E-02
   0.237E+00 0.457E-01 0.847E+02   -.229E+00 -.267E-01 -.916E+02   0.103E-01 -.380E-02 0.688E+01   -.132E-01 -.943E-02 0.333E-02
   0.280E+00 0.802E-03 0.847E+02   -.275E+00 -.105E-02 -.916E+02   0.155E-01 0.109E-03 0.688E+01   -.147E-01 0.131E-03 0.471E-02
   0.236E+00 -.466E-01 0.847E+02   -.229E+00 0.278E-01 -.916E+02   0.104E-01 0.369E-02 0.688E+01   -.131E-01 0.929E-02 0.324E-02
   -.550E-03 0.427E-01 0.847E+02   0.538E-03 -.182E-01 -.916E+02   0.114E-04 -.290E-02 0.689E+01   0.471E-04 -.126E-01 0.278E-02
   0.150E-02 -.710E-03 0.847E+02   -.147E-02 0.825E-03 -.916E+02   -.600E-04 -.824E-04 0.689E+01   -.372E-04 -.318E-04 0.190E-02
   -.187E-03 -.421E-01 0.847E+02   0.274E-03 0.175E-01 -.916E+02   -.279E-04 0.298E-02 0.689E+01   -.498E-04 0.126E-01 0.279E-02
   -.236E+00 0.458E-01 0.847E+02   0.229E+00 -.268E-01 -.916E+02   -.103E-01 -.376E-02 0.688E+01   0.131E-01 -.938E-02 0.333E-02
   -.282E+00 0.205E-03 0.847E+02   0.277E+00 -.310E-03 -.916E+02   -.155E-01 0.399E-04 0.688E+01   0.148E-01 0.618E-04 0.469E-02
   -.236E+00 -.460E-01 0.847E+02   0.229E+00 0.271E-01 -.916E+02   -.104E-01 0.373E-02 0.688E+01   0.132E-01 0.933E-02 0.325E-02
 -----------------------------------------------------------------------------------------------
   0.944E-04 -.271E-05 0.253E-04   -.390E-13 -.126E-12 0.152E-11   -.423E-04 -.381E-05 0.603E-04   -.289E-04 0.117E-04 -.689E-04


 POSITION                                       TOTAL-FORCE (eV/Angst)
 -----------------------------------------------------------------------------------
      1.89616      1.89617      4.80229         0.002622      0.002420     -0.000036
      1.89617      5.68842      4.80229         0.002847     -0.000170      0.004821
      1.89617      9.48067      4.80229         0.002375     -0.002232     -0.000245
      5.68842      1.89618      4.80228        -0.000106      0.002614     -0.004772
      5.68842      5.68842      4.80228         0.000083      0.000244      0.000212
      5.68842      9.48067      4.80228         0.000035     -0.002856     -0.004599
      9.48068      1.89617      4.80228        -0.002508      0.002425      0.000119
      9.48067      5.68842      4.80229        -0.002925     -0.000143      0.004822
      9.48068      9.48068      4.80229        -0.002408     -0.002288      0.000042
      1.89617     11.37684      7.20342         0.003011      0.000236     -0.004637
      1.89617      3.79225      7.20343         0.002310     -0.002274      0.000018
      1.89617      7.58459      7.20343         0.002094      0.002032      0.000242
      5.68842      0.00000      7.20344        -0.000157     -0.000097     -0.000237
      5.68842      3.79224      7.20344        -0.000119     -0.002721      0.004790
      5.68842      7.58460      7.20345         0.000060      0.002828      0.004350
      9.48067     11.37684      7.20343        -0.002851      0.000061     -0.004914
      9.48067      3.79226      7.20343        -0.002182     -0.002415     -0.000135
      9.48067      7.58459      7.20343        -0.002163      0.002355      0.000094
     11.37684     11.37684      9.60457         0.000185      0.000211      0.000200
     11.37684      3.79225      9.60457         0.000110     -0.003054     -0.004689
     11.37684      7.58460      9.60457         0.000054      0.002827     -0.004999
      3.79225      0.00000      0.00001        -0.003061     -0.000059      0.004630
      3.79226      3.79225      9.60457        -0.002438     -0.002320      0.000065
      3.79226      7.58459      9.60457        -0.002723      0.002371      0.000211
      7.58460      0.00000      0.00001         0.002893     -0.000045      0.004840
      7.58459      3.79226      9.60457         0.002317     -0.002440      0.000089
      7.58458      7.58459      9.60457         0.002664      0.002490      0.000300
     11.37684      1.89617      2.40116         0.000072      0.002836      0.004487
     11.37684      5.68843      2.40114         0.000058     -0.000259     -0.000050
     11.37684      9.48066      2.40115         0.000089     -0.002573      0.004776
      3.79226      1.89616      2.40114        -0.002482      0.002517      0.000135
      3.79225      5.68842      2.40114        -0.003024     -0.000076     -0.004902
      3.79226      9.48068      2.40114        -0.002474     -0.002443     -0.000045
      7.58459      1.89617      2.40114         0.002412      0.002388     -0.000010
      7.58459      5.68842      2.40114         0.002960      0.000191     -0.004811
      7.58459      9.48068      2.40115         0.002386     -0.002586     -0.000123
     11.37684      1.89646      4.39801         0.000057      0.009022      0.000600
      0.00000      5.68842      4.39800        -0.000041     -0.000001      0.002035
     11.37684      9.48038      4.39801         0.000039     -0.009027      0.000624
      3.79197      1.89637      4.39801        -0.004272      0.005851      0.001848
      3.79189      5.68842      4.39805        -0.006451      0.000003      0.004350
      3.79197      9.48047      4.39801        -0.004353     -0.005850      0.001844
      7.58488      1.89637      4.39801         0.004224      0.005851      0.001824
      7.58495      5.68842      4.39805         0.006481      0.000001      0.004400
      7.58487      9.48047      4.39801         0.004306     -0.005847      0.001829
      1.89637      1.89645      6.79916         0.005851      0.004237      0.001821
      1.89646      5.68842      6.79915         0.009017      0.000094      0.000608
      1.89637      9.48039      6.79916         0.005849     -0.004327      0.001810
      5.68842      1.89653      6.79919         0.000004      0.006505      0.004376
      5.68842      5.68842      6.79914         0.000003     -0.000004      0.002032
      5.68842      9.48032      6.79919         0.000003     -0.006497      0.004415
      9.48047      1.89645      6.79915        -0.005850      0.004219      0.001875
      9.48038      5.68842      6.79915        -0.009026     -0.000015      0.000559
      9.48048      9.48039      6.79916        -0.005848     -0.004193      0.001830
      1.89647      0.00000      5.20657         0.009024     -0.000057     -0.000604
      1.89637      3.79197      5.20656         0.005850     -0.004268     -0.001860
      1.89637      7.58488      5.20656         0.005849      0.004323     -0.001829
      5.68842      0.00000      5.20657         0.000005      0.000036     -0.002011
      5.68842      3.79189      5.20653         0.000001     -0.006453     -0.004377
      5.68842      7.58495      5.20653        -0.000001      0.006409     -0.004355
      9.48038      0.00000      5.20656        -0.009023     -0.000071     -0.000553
      9.48047      3.79196      5.20656        -0.005849     -0.004151     -0.001838
      9.48047      7.58488      5.20656        -0.005849      0.004212     -0.001873
     11.37684      0.00000      7.60772        -0.000046      0.000005     -0.002056
     11.37684      3.79196      7.60771        -0.000021     -0.009026     -0.000607
     11.37684      7.58489      7.60771         0.000094      0.009026     -0.000597
      3.79189     11.37684      7.60767        -0.006448     -0.000003     -0.004345
      3.79197      3.79206      7.60771        -0.004221     -0.005853     -0.001859
      3.79197      7.58479      7.60770        -0.004273      0.005851     -0.001859
      7.58495     11.37684      7.60767         0.006495     -0.000000     -0.004382
      7.58488      3.79205      7.60770         0.004235     -0.005852     -0.001828
      7.58488      7.58479      7.60770         0.004173      0.005848     -0.001838
      1.89652      0.00000      9.20033         0.006522      0.000002      0.004398
      1.89645      3.79205      9.20030         0.004270     -0.005852      0.001836
      1.89646      7.58479      9.20030         0.004261      0.005849      0.001797
      5.68843     11.37684      9.20029        -0.000058      0.000001      0.002048
      5.68842      3.79196      9.20030         0.000036     -0.009028      0.000572
      5.68842      7.58489      9.20030         0.000011      0.009021      0.000566
      9.48031      0.00000      9.20034        -0.006463      0.000004      0.004348
      9.48039      3.79205      9.20030        -0.004301     -0.005853      0.001833
      9.48039      7.58479      9.20030        -0.004263      0.005850      0.001850
      0.00000      0.00000      1.99685        -0.000002     -0.000033      0.002035
      0.00000      3.79189      1.99690        -0.000000     -0.006406      0.004409
      0.00000      7.58495      1.99691         0.000001      0.006436      0.004384
      3.79196      0.00000      1.99687        -0.009023     -0.000035      0.000568
      3.79205      3.79196      1.99687        -0.005848     -0.004148      0.001866
      3.79205      7.58488      1.99687        -0.005850      0.004184      0.001856
      7.58489      0.00000      1.99686         0.009017     -0.000024      0.000609
      7.58479      3.79197      1.99687         0.005850     -0.004253      0.001828
      7.58479      7.58488      1.99687         0.005853      0.004273      0.001839
      0.00000      1.89653      0.40424        -0.000004      0.006443     -0.004390
      0.00000      5.68842      0.40428         0.000001      0.000053     -0.001999
      0.00000      9.48032      0.40424        -0.000003     -0.006493     -0.004383
      3.79205      1.89646      0.40428        -0.005848      0.004151     -0.001892
      3.79196      5.68842      0.40428        -0.009020      0.000013     -0.000556
      3.79205      9.48038      0.40428        -0.005847     -0.004163     -0.001861
      7.58479      1.89646      0.40428         0.005849      0.004274     -0.001864
      7.58489      5.68842      0.40428         0.009024     -0.000036     -0.000617
      7.58479      9.48039      0.40428         0.005847     -0.004231     -0.001842
      1.89646      1.89637      2.80542         0.004231      0.005850     -0.001795
      1.89653      5.68842      2.80538         0.006506     -0.000002     -0.004405
      1.89645      9.48047      2.80542         0.004278     -0.005847     -0.001789
      5.68842      1.89647      2.80542         0.000046      0.009027     -0.000575
      5.68842      5.68842      2.80543        -0.000066      0.000001     -0.002036
      5.68842      9.48038      2.80542         0.000009     -0.009019     -0.000616
      9.48039      1.89637      2.80542        -0.004286      0.005854     -0.001849
      9.48031      5.68842      2.80538        -0.006425     -0.000003     -0.004366
      9.48039      9.48047      2.80542        -0.004283     -0.005849     -0.001836
 -----------------------------------------------------------------------------------
    total drift:                                0.000023      0.000005      0.000017


--------------------------------------------------------------------------------------------------------



  FREE ENERGIE OF THE ION-ELECTRON SYSTEM (eV)
  ---------------------------------------------------
  free  energy   TOTEN  =      -990.72913886 eV

  energy  without entropy=     -990.72913886  energy(sigma->0) =     -990.72913886

 d Force = 0.1987327E-03[ 0.165E-03, 0.232E-03]  d Energy = 0.1616544E-03 0.371E-04
 d Force = 0.5546709E+00[ 0.553E+00, 0.556E+00]  d Ewald  = 0.5546709E+00-0.342E-09


--------------------------------------------------------------------------------------------------------


    POTLOK:  cpu time      0.0208: real time      0.0210


--------------------------------------------------------------------------------------------------------


    OFIELD:  cpu time      0.0000: real time      0.0000
           RANDOM_SEED =         182656020                0                0
   IONSTEP:  cpu time      0.0501: real time      0.0508

  ENERGY OF THE ELECTRON-ION-THERMOSTAT SYSTEM (eV)
  ---------------------------------------------------
% ion-electron   TOTEN  =      -990.729139  see above
  kinetic energy EKIN   =         0.000080
  kin. lattice  EKIN_LAT=         0.000000  (temperature    0.01 K)
  nose potential ES     =        -0.000014
  nose kinetic   EPS    =         0.000010
  ---------------------------------------------------
  total energy   ETOTAL =      -990.729063 eV

  maximum distance moved by ions :      0.39E-05

    OFIELD:  cpu time      0.0000: real time      0.0000
